------------------------------------------------------------
          Invoking FHI-aims ...

          When using FHI-aims, please cite the following reference:

          Volker Blum, Ralf Gehrke, Felix Hanke, Paula Havu,
          Ville Havu, Xinguo Ren, Karsten Reuter, and Matthias Scheffler,
          'Ab Initio Molecular Simulations with Numeric Atom-Centered Orbitals',
          Computer Physics Communications 180, 2175-2196 (2009)

          For any questions about FHI-aims, please visit the aimsclub website
          with its forums and wiki. Contributions to both the forums and the
          wiki are warmly encouraged - they are for you, and everyone is welcome there.

------------------------------------------------------------



  Date     :  20191125, Time     :  143100.912
  Time zero on CPU 1             :   0.583020000000000E-01  s.
  Internal wall clock time zero  :           343924260.912  s.

  FHI-aims created a unique identifier for this run for later identification
  aims_uuid : C69AFBED-187C-4E46-A19D-82BE87954E3C

  Build configuration of the current instance of FHI-aims
  -------------------------------------------------------
  FHI-aims version      : 191119
  Commit number         : cdd2bf4bc
  CMake host system     : Linux-5.0.0-32-generic
  CMake version         : 3.10.2
  Fortran compiler      : /home/kanaigroup/Codes/openmpi/4.0.1_intel2019.3/openmpi-4.0.1/install_yy/bin/mpif90 (Intel) version 19.0.0.20190206
  Fortran compiler flags: -O0 -xAVX -ip -fp-model precise -traceback -g
  C compiler            : /home/kanaigroup/Codes-host/intel/install_2019.3/compilers_and_libraries_2019/linux/bin/intel64/icc (Intel) version 19.0.0.20190206
  C compiler flags      : -O0 -xAVX -ip -fp-model precise -g
  C++ compiler          : /home/kanaigroup/Codes-host/intel/install_2019.3/compilers_and_libraries_2019/linux/bin/intel64/icpc (Intel) version 19.0.0.20190206
  C++ compiler flags    :
  Architecture          : AMD64_AVX
  Using MPI
  Using Scalapack
  Using C files
  Using LibXC
  Using i-PI
  Using RLSY
  Linking against: /home/kanaigroup/Codes-host/intel/install_2019.3/compilers_and_libraries_2019/linux/mkl/lib/intel64/libmkl_intel_lp64.so
                   /home/kanaigroup/Codes-host/intel/install_2019.3/compilers_and_libraries_2019/linux/mkl/lib/intel64/libmkl_sequential.so
                   /home/kanaigroup/Codes-host/intel/install_2019.3/compilers_and_libraries_2019/linux/mkl/lib/intel64/libmkl_core.so
                   /home/kanaigroup/Codes-host/intel/install_2019.3/compilers_and_libraries_2019/linux/mkl/lib/intel64/libmkl_blacs_openmpi_lp64.so
                   /home/kanaigroup/Codes-host/intel/install_2019.3/compilers_and_libraries_2019/linux/mkl/lib/intel64/libmkl_scalapack_lp64.so
                   /home/kanaigroup/Codes-host/hdf5/hdf5-1.10.5/lib/libhdf5_fortran.so
                   /home/kanaigroup/Codes-host/hdf5/hdf5-1.10.5/lib/libhdf5.so

  Using        1 parallel tasks.
  Task        0 on host ubuntu reporting.

  Performing system and environment tests:
  *** Environment variable OMP_NUM_THREADS is not set
  *** For performance reasons you might want to set it to 1
  | Maximum stacksize for task 0: unlimited
  | Current stacksize for task 0: unlimited
  | Checking for scalapack...
  | Testing pdtran()...
  | All pdtran() tests passed.

  Obtaining array dimensions for all initial allocations:
  
  -----------------------------------------------------------------------
  Parsing control.in (first pass over file, find array dimensions only).
  The contents of control.in will be repeated verbatim below
  unless switched off by setting 'verbatim_writeout .false.' .
  in the first line of control.in .
  -----------------------------------------------------------------------
  
  # YY:WARNING just for test
  #    NEVER use the numerical setting here for productive run
  #
  # Physical settings
    xc                 pbe
    spin               none
  
    symmetry_reduced_k_grid .false.
    compute_forces .true.
    compute_analytical_stress .true.
    compensate_multipole_errors .false.
    hartree_d_matrix_method pseudo_inverse #submatrix
  
  # k-point grid
    k_grid  4 4 4
  
    KS_method serial ! ELSI lapack
    rlsy_symmetry all
    preconditioner none
  
    prune_basis_once .false.
  ################################################################################
  #
  #  FHI-aims code project
  #  VB, Fritz-Haber Institut, 2009
  #
  #  Suggested "light" defaults for Si atom (to be pasted into control.in file)
  #  Be sure to double-check any results obtained with these settings for post-processing,
  #  e.g., with the "tight" defaults and larger basis sets.
  #
  ################################################################################
    species        Si
  #     global species definitions
      nucleus             14
      mass                28.0855
  #
      l_hartree           4
  #
      cut_pot             3.5          1.5  1.0
      basis_dep_cutoff    1e-4
  #
      radial_base         21 5.0
      radial_multiplier   1
      angular_grids       specified
        division   0.5866   50
        #division   0.9616  110
        #division   1.2249  194
        #division   1.3795  302
        #division   1.4810  434
        #division   1.5529  590
        #division   1.6284  770
        #division   1.7077  974
        #division   2.4068 1202
        outer_grid 50
  #      outer_grid   974
  #      outer_grid 5810
  #      outer_grid 1202
  ################################################################################
  #
  #  Definition of "minimal" basis
  #
  ################################################################################
  #     valence basis states
      valence      3  s   2.
      valence      3  p   2.
  #     ion occupancy
      ion_occ      3  s   1.
      ion_occ      3  p   1.
  ################################################################################
  #
  #  Suggested additional basis functions. For production calculations,
  #  uncomment them one after another (the most important basis functions are
  #  listed first).
  #
  #  Constructed for dimers: 1.75 A, 2.0 A, 2.25 A, 2.75 A, 3.75 A
  #
  ################################################################################
  #  "First tier" - improvements: -571.96 meV to -37.03 meV
  #     hydro 3 d 4.2
  #     hydro 2 p 1.4
  #     hydro 4 f 6.2
  #     ionic 3 s auto
  #  "Second tier" - improvements: -16.76 meV to -3.03 meV
  #     hydro 3 d 9
  #     hydro 5 g 9.4
  #     hydro 4 p 4
  #     hydro 1 s 0.65
  #  "Third tier" - improvements: -3.89 meV to -0.60 meV
  #     ionic 3 d auto
  #     hydro 3 s 2.6
  #     hydro 4 f 8.4
  #     hydro 3 d 3.4
  #     hydro 3 p 7.8
  #  "Fourth tier" - improvements: -0.33 meV to -0.11 meV
  #     hydro 2 p 1.6
  #     hydro 5 g 10.8
  #     hydro 5 f 11.2
  #     hydro 3 d 1
  #     hydro 4 s 4.5
  #  Further basis functions that fell out of the optimization - noise
  #  level... < -0.08 meV
  #     hydro 4 d 6.6
  #     hydro 5 g 16.4
  #     hydro 4 d 9
  
  -----------------------------------------------------------------------
  Completed first pass over input file control.in .
  -----------------------------------------------------------------------
  
  
  -----------------------------------------------------------------------
  Parsing geometry.in (first pass over file, find array dimensions only).
  The contents of geometry.in will be repeated verbatim below
  unless switched off by setting 'verbatim_writeout .false.' .
  in the first line of geometry.in .
  -----------------------------------------------------------------------
  
  lattice_vector 5.43 0.0000000000000000 0.0000000000000000
  lattice_vector 0.0000000000000000 5.43 0.0000000000000000
  lattice_vector 0.0000000000000000 0.0000000000000000 5.43
  atom 0.0000000000000000 0.0000000000000000 0.0000000000000000 Si
  atom 1.3575000000000000 1.3575000000000000 1.3575000000000000 Si
  atom 0.0000000000000000 2.7150000000000000 2.7150000000000000 Si
  atom 1.3575000000000000 4.0725000000000000 4.0725000000000000 Si
  atom 2.7150000000000000 0.0000000000000000 2.7150000000000000 Si
  atom 4.0725000000000000 1.3575000000000000 4.0725000000000000 Si
  atom 2.7150000000000000 2.7150000000000000 0.0000000000000000 Si
  atom 4.0725000000000000 4.0725000000000000 1.3575000000000000 Si
  
  -----------------------------------------------------------------------
  Completed first pass over input file geometry.in .
  -----------------------------------------------------------------------
  

  Basic array size parameters:
  | Number of species                 :        1
  | Number of atoms                   :        8
  | Number of lattice vectors         :        3
  | Max. basis fn. angular momentum   :        1
  | Max. atomic/ionic basis occupied n:        3
  | Max. number of basis fn. types    :        1
  | Max. radial fns per species/type  :        5
  | Max. logarithmic grid size        :     1346
  | Max. radial integration grid size :       21
  | Max. angular integration grid size:       50
  | Max. angular grid division number :        8
  | Radial grid for Hartree potential :     1346
  | Number of spin channels           :        1

------------------------------------------------------------
          Reading file control.in.
------------------------------------------------------------
  XC: Using PBE gradient-corrected functionals.
  Spin treatment: No spin polarisation.
  Request to not use symmetry reduced k-point grids.
  Forces will be computed.
  Switching off the compensation of charge integration errors on the
  3D integration grid.
  | Use pseudo inverse method for d matrix in Hartree potential
  Found k-point grid:         4         4         4
  Kohn-Sham eigenvalues and eigenfunctions calculated by LAPACK via ELSI.
  Explicitly turning off the kerker preconditioner.
 
  Reading configuration options for species Si                  .
  | Found nuclear charge :  14.0000
  | Found atomic mass :    28.0855000000000      amu
  | Found l_max for Hartree potential  :   4
  | Found cutoff potl. onset [A], width [A], scale factor :    3.50000    1.50000    1.00000
  | Threshold for basis-dependent cutoff potential is   0.100000E-03
  | Found data for basic radial integration grid :    21 points, outermost radius =    5.000 A
  | Found multiplier for basic radial grid :   1
  | Found angular grid specification: user-specified.
  | Specified grid contains     2 separate shells.
  | Check grid settings after all constraints further below.
  | Found free-atom valence shell :  3 s   2.000
  | Found free-atom valence shell :  3 p   2.000
  | No ionic wave fns used. Skipping ion_occ.
  | No ionic wave fns used. Skipping ion_occ.
  Species Si                  : Missing cutoff potential type.
  Defaulting to exp(1/x)/(1-x)^2 type cutoff potential.
  Species Si: No 'logarithmic' tag. Using default grid for free atom:
  | Default logarithmic grid data [bohr] : 0.1000E-03 0.1000E+03 0.1012E+01
  Species Si: On-site basis accuracy parameter (for Gram-Schmidt orthonormalisation) not specified.
  Using default value basis_acc =  0.1000000E-03.
  Species Si                  : Using default innermost maximum threshold i_radial=  2 for radial functions.
  Species Si                  : Default cutoff onset for free atom density etc. : 0.35000000E+01 AA.
  Species Si                  : Basic radial grid will be enhanced according to radial_multiplier =   1, to contain    21 grid points.
 
  Finished reading input file 'control.in'. Consistency checks are next.
 
  MPI_IN_PLACE appears to work with this MPI implementation.
  | Keeping use_mpi_in_place .true. (see manual).
  Target number of points in a grid batch is not set. Defaulting to  100
  Method for grid partitioning is not set. Defaulting to parallel hash+maxmin partitioning.
  Batch size limit is not set. Defaulting to    200
  communication_type for Hartree potential was not specified.
  Defaulting to calc_hartree .
  Defaulting to Pulay charge density mixer.
  Pulay mixer: Number of relevant iterations not set.
  Defaulting to    8 iterations.
  Pulay mixer: Number of initial linear mixing iterations not set.
  Defaulting to    0 iterations.
  Work space size for distributed Hartree potential not set.
  Defaulting to   0.200000E+03 MB.
  Mixing parameter for charge density mixing has not been set.
  Using default: charge_mix_param =     0.0500.
  The mixing parameter will be adjusted in iteration number     2 of the first full s.c.f. cycle only.
  Algorithm-dependent basis array size parameters:
  | n_max_pulay                         :        8
 * Notice: The s.c.f. convergence criterion sc_accuracy_rho was not provided.
 * We used to stop in this case, and ask the user to provide reasonable
 * scf convergence criteria. However, this led some users to employ criteria
 * that led to extremely long run times, e.g., for simple relaxation.
 * We now preset a default value for sc_accuracy_rho if it is not set.
 * You may still wish to check if this setting is too tight or too loose for your needs.
 * Based on n_atoms, FHI-aims chose sc_accuracy_rho =  0.115470E-05 .
  Maximum number of self-consistency iterations not provided.
  Presetting  1000 iterations.
  Presetting      1001 iterations before the initial mixing cycle
  is restarted anyway using the sc_init_iter criterion / keyword.
  Presetting a factor      1.000 between actual scf density residual
  and density convergence criterion sc_accuracy_rho below which sc_init_iter
  takes no effect.
 * No s.c.f. convergence criteria (sc_accuracy_*) were provided in control.in.
 * The run will proceed with a reasonable default guess, but please check whether.
 * the s.c.f. cycles seem to take too much or too little time.
  Geometry relaxation not requested: no relaxation will be performed.
  Analytical stress will be computed.
  Analytical stress calculation: Only the upper triangle is calculated.
                                 Final output is symmetrized.
  Analytical stress calculation: scf convergence accuracy of stress not set.
                                 Analytical stress self-consistency will not be checked explicitly.
                                 Be sure to set other criteria like sc_accuracy_rho tight enough.
  Force calculation: scf convergence accuracy of forces not set.
  Defaulting to 'sc_accuracy_forces not_checked'.
  Handling of forces: Unphysical translation and rotation will be removed from forces.
  No accuracy limit for integral partition fn. given. Defaulting to  0.1000E-14.
  No threshold value for u(r) in integrations given. Defaulting to  0.1000E-05.
  No occupation type (smearing scheme) given. Defaulting to Gaussian broadening, width =  0.1000E-01 eV.
  The width will be adjusted in iteration number     2 of the first full s.c.f. cycle only.
  S.C.F. convergence parameters will be adjusted in iteration number     2 of the first full s.c.f. cycle only.
  No accuracy for occupation numbers given. Defaulting to  0.1000E-12.
  No threshold value for occupation numbers given. Defaulting to  0.0000E+00.
  No accuracy for fermi level given. Defaulting to  0.1000E-19.
  Maximum # of iterations to find E_F not set. Defaulting to  200.
  Will not use alltoall communication since running on < 1024 CPUs.
  Threshold for basis singularities not set.
  Default threshold for basis singularities:  0.1000E-04
  partition_type (choice of integration weights) for integrals was not specified.
  | Using a version of the partition function of Stratmann and coworkers ('stratmann_sparse').
  | At each grid point, the set of atoms used to build the partition table is smoothly restricted to
  | only those atoms whose free-atom density would be non-zero at that grid point.
  Partitioning for Hartree potential was not defined. Using partition_type for integrals.
  | Adjusted default value of keyword multip_moments_threshold to:       0.10000000E-11
  | This value may affect high angular momentum components of the Hartree potential in periodic systems.
  No q(lm)/r^(l+1) cutoff set for long-range Hartree potential.
  | Using default value of  0.100000E-09 .
  | Verify using the multipole_threshold keyword.
  Defaulting to new monopole extrapolation.
  Density update method: automatic selection selected.
  Using density matrix based charge density update.
  Using density matrix based charge density update.
  Using packed matrix style: index .
------------------------------------------------------------


------------------------------------------------------------
          Reading geometry description geometry.in.
------------------------------------------------------------
 * Warning! You did not set the 'relativistic' flag in input file 'control.in'.
 * Since you are not attempting to treat any elements beyond Ca(Z=20), FHI-aims
 * will default to 'relativistic none'.
 * You must ensure that this is really what you want!!
 * For example, DO NOT compute total-energy differences between results from
 * different settings of the 'relativistic' flag.
  Input structure read successfully.
  The structure contains        8 atoms,  and a total of        112.000 electrons.

  Input geometry:
  | Unit cell:
  |        5.43000000        0.00000000        0.00000000
  |        0.00000000        5.43000000        0.00000000
  |        0.00000000        0.00000000        5.43000000
  | Atomic structure:
  |       Atom                x [A]            y [A]            z [A]
  |    1: Species Si            0.00000000        0.00000000        0.00000000
  |    2: Species Si            1.35750000        1.35750000        1.35750000
  |    3: Species Si            0.00000000        2.71500000        2.71500000
  |    4: Species Si            1.35750000        4.07250000        4.07250000
  |    5: Species Si            2.71500000        0.00000000        2.71500000
  |    6: Species Si            4.07250000        1.35750000        4.07250000
  |    7: Species Si            2.71500000        2.71500000        0.00000000
  |    8: Species Si            4.07250000        4.07250000        1.35750000

  Lattice parameters for 3D lattice (in Angstroms) :     5.430000    5.430000    5.430000
  Angle(s) between unit vectors (in degrees)       :    90.000000   90.000000   90.000000

  | The smallest distance between any two atoms is         2.35125897 AA.
  | The first atom of this pair is atom number                      1 .
  | The second atom of this pair is atom number                     4 .
  | Wigner-Seitz cell of the first atom image           0     0     0 .
  | (The Wigner-Seitz cell of the second atom is 0 0 0  by definition.)

  Quantities derived from the lattice vectors:
  | Reciprocal lattice vector 1:  1.157124  0.000000  0.000000
  | Reciprocal lattice vector 2:  0.000000  1.157124  0.000000
  | Reciprocal lattice vector 3:  0.000000  0.000000  1.157124
  | Unit cell volume                               :   0.160103E+03  A^3

  Range separation radius for Ewald summation (hartree_convergence_parameter):      3.88818726 bohr.

  Fractional coordinates:
                         L1                L2                L3
       atom_frac         0.00000000        0.00000000        0.00000000  Si
       atom_frac         0.25000000        0.25000000        0.25000000  Si
       atom_frac         0.00000000        0.50000000        0.50000000  Si
       atom_frac         0.25000000        0.75000000        0.75000000  Si
       atom_frac         0.50000000        0.00000000        0.50000000  Si
       atom_frac         0.75000000        0.25000000        0.75000000  Si
       atom_frac         0.50000000        0.50000000        0.00000000  Si
       atom_frac         0.75000000        0.75000000        0.25000000  Si

  Number of empty states per atom not set in control.in - providing a guess from actual geometry.
  | Total number of empty states used during s.c.f. cycle:       24
  If you use a very high smearing, use empty_states (per atom!) in control.in to increase this value.

  Structure-dependent array size parameters: 
  | Maximum number of distinct radial functions  :        5
  | Maximum number of basis functions            :       72
  | Number of Kohn-Sham states (occupied + empty):       80
------------------------------------------------------------

------------------------------------------------------------
          Preparing all fixed parts of the calculation.
------------------------------------------------------------
  Determining machine precision:
    2.225073858507201E-308
  Setting up grids for atomic and cluster calculations.

  Creating wave function, potential, and density for free atoms.

  Species: Si

  List of occupied orbitals and eigenvalues:
    n    l              occ      energy [Ha]    energy [eV]
    1    0           2.0000       -65.445149     -1780.8531
    2    0           2.0000        -5.090624      -138.5229
    3    0           2.0000        -0.387306       -10.5391
    2    1           6.0000        -3.501074       -95.2691
    3    1           2.0000        -0.141183        -3.8418

  Creating fixed part of basis set: Ionic, confined, hydrogenic.

  Adding cutoff potential to free-atom effective potential.
  Creating atomic-like basis functions for current effective potential.

  Species Si                  :

  List of atomic basis orbitals and eigenvalues:
    n    l      energy [Ha]    energy [eV]    outer radius [A]
    1    0       -65.445149     -1780.8531       0.789468
    2    0        -5.090624      -138.5229       2.815114
    3    0        -0.387306       -10.5391       4.534782
    2    1        -3.501074       -95.2691       3.259919
    3    1        -0.141183        -3.8418       4.590560

  Assembling full basis from fixed parts.
  | Species Si :   atomic orbital   1 s accepted.
  | Species Si :   atomic orbital   2 s accepted.
  | Species Si :   atomic orbital   3 s accepted.
  | Species Si :   atomic orbital   2 p accepted.
  | Species Si :   atomic orbital   3 p accepted.
  Reducing total number of  Kohn-Sham states to       72.
 
  Basis size parameters after reduction:
  | Total number of radial functions:        5
  | Total number of basis functions :       72
 
  Per-task memory consumption for arrays in subroutine allocate_ext:
  |           1.294112MB.
  Testing on-site integration grid accuracy.
  |  Species  Function  <phi|h_atom|phi> (log., in eV)  <phi|h_atom|phi> (rad., in eV)
           1        1              -1780.8531022212              -1780.7494939019 ***
           1        2               -138.5229174676               -138.5225956378
           1        3                -10.5400359297                -10.5390340598
           1        4                -95.2690610510                -95.2690704039
           1        5                 -3.8516954565                 -3.8415327317
 * Note: Onsite integrals marked "***" above are less accurate than
 * onsite_accuracy_threshold =    0.03000 eV. Usually, this is harmless.
 * However, one integral did have a negative value. This integral could be important.
 * When in doubt, tighten the "radial" and/or "radial_multiplier" flags to check.

  Preparing densities etc. for the partition functions (integrals / Hartree potential).

  Preparations completed.
  max(cpu_time)          :      0.218 s.
  Wall clock time (cpu1) :      0.222 s.
------------------------------------------------------------

------------------------------------------------------------
          Begin self-consistency loop: Initialization.

          Date     :  20191125, Time     :  143101.184
------------------------------------------------------------

  Initializing index lists of integration centers etc. from given atomic structure:
  Mapping all atomic coordinates to central unit cell.

  Initializing the k-points
  | Number of k-points                             :        64
  The eigenvectors in the calculations are COMPLEX.
  | K-points in task   0:        64
  | Number of basis functions in the Hamiltonian integrals :       889
  | Number of basis functions in a single unit cell        :        72
  | Number of centers in hartree potential         :      1026
  | Number of centers in hartree multipole         :       486
  | Number of centers in electron density summation:       324
  | Number of centers in basis integrals           :       366
  | Number of centers in integrals                 :       143
  | Number of centers in hamiltonian               :       324
  | Consuming         76 KiB for k_phase.
  | Number of super-cells (origin) [n_cells]                     :         729
  | Number of super-cells (after PM_index) [n_cells]             :          76
  | Number of super-cells in hamiltonian [n_cells_in_hamiltonian]:          76
  | Size of matrix packed + index [n_hamiltonian_matrix_size] :       31753
  | Estimated reciprocal-space cutoff momentum G_max:         2.40094914 bohr^-1 .
  | Reciprocal lattice points for long-range Hartree potential:     250
  Partitioning the integration grid into batches with parallel hashing+maxmin method.
  | Number of batches:      128
  | Maximal batch size:      68
  | Minimal batch size:      63
  | Average batch size:      65.625
  | Standard deviation of batch sizes:       1.500

  Integration load balanced across     1 MPI tasks.
  Work distribution over tasks is as follows:
  Task     0 has       8400 integration points.
  Initializing partition tables, free-atom densities, potentials, etc. across the integration grid (initialize_grid_storage).
  | initialize_grid_storage: Actual outermost partition radius vs. multipole_radius_free
  | (-- VB: in principle, multipole_radius_free should be larger, hence this output)
  | Species        1: Confinement radius =              4.999999999999999 AA, multipole_radius_free =              5.000694715736543 AA.
  | Species        1: outer_partition_radius set to              5.000694715736543 AA .
  | The sparse table of interatomic distances needs        468.32 kbyte instead of      1071.65 kbyte of memory.
  | Net number of integration points:     8400
  | of which are non-zero points    :     7744
  | Numerical average free-atom electrostatic potential    :    -13.22023405 eV
  Renormalizing the initial density to the exact electron count on the 3D integration grid.
  | Initial density: Formal number of electrons (from input files) :     112.0000000000
  | Integrated number of electrons on 3D grid     :     112.5498733515
  | Charge integration error                      :       0.5498733515
  | Normalization factor for density and gradient :       0.9951144028
 
 SORTING OUT SYMMETRIES
 ... got structure (0.00029s)
 ... got spacegroup (0.50676s)
 ... sorted basis functions (0.00191s)
 ... sorted free atom quantities (0.00048s)
 ... got a voronoi cell! dim:  6 6 6 (0.06718s)
 ... built supercluster, n=1963 (0.00309s)
 ... built permutations (0.00748s)
 ... built initial shells (0.02324s)
 ... pruned shells 1963 > 429 (0.01106s)
 ... done constructing initial cluster (0.00060s)
 ... done with extended cluster (0.11319s)
 
 SYMMETRIZING AND PARTITIONING INTEGRATION GRID
 ... initialized grid division (0.00033s)
 ... reduced mesh with symmetry (0.00930s)
 ... divided mesh with partition function (0.01448s)
     total n point:        8400
       irr n point:         116  1.38095%
  zero irr n point:          10
          n chunks:           1
 FIXME OUTPUT GRID THINGS LARGE SYSTEM
         pts/chunk: 116
          divisors: 1 div 
 ... decided on division (0.00132s)
 
 DISTRIBUTED MESH DIVISION
     divided mesh, iteration 00  ( pts/chunk: 116 )
 ... split into chunks (0.00050s)
 
 SERIAL DIVISION OF MESH
         pts/chunk: 10
          divisors: 1 div 
 
 DISTRIBUTED MESH DIVISION
     divided mesh, iteration 00  ( pts/chunk: 10 )
 
 SERIAL DIVISION OF MESH
 ... generated irreducible batches from points (0.01170s)
         pts/chunk: 7744
          divisors: 1 div  2 2 2 2 2
 
 DISTRIBUTED MESH DIVISION
     divided mesh, iteration 00  ( pts/chunk: 7744 )
 
 SERIAL DIVISION OF MESH
     divided mesh, iteration 01  ( pts/batch:  3872 3872 )
     divided mesh, iteration 02  ( pts/batch:  1936 1936 1936 1936 )
     divided mesh, iteration 03  ( pts/batch:  968 968 968 968 968 968 968 968 )
     divided mesh, iteration 04  ( pts/batch:  484 484 484 484 484 484 484 484
  ... )
     divided mesh, iteration 05  ( pts/batch:  242 242 242 242 242 242 242 242
  ... )
     ==============================================================
 ... got batch statistics (0.12756s)
 ... got partition function (0.34466s)
 ... done partitioning grid (0.51045s)
 ... done setting up density (0.00129s)
 
 REDUCING KPOINTS WITH SYMMETRY
 ... expanded number of k-points to 64 from 64
 ... built permutation list (0.01937)
 ... found 10 irreducible points out of 64 (0.02282)
 ... generated k-point mesh (0.02524)
 
 SETTING UP EIGENVALUE SOLVER
 ... finished setting up space for solution of KS eigenproblem (0.00148s)
 ... generated irreducible k-mesh and storage (0.02760s)
 
 SETTING UP REALSPACE STORAGE
 ... got distance table (0.00416s)
 ... fetched list of relevant pairs (0.00031s)
 ... using 192 symmetry operations to reduce pairs
 ... prepared symmetryreduction (0.00124s)
 ... constructed shells (0.13111s)
 ... built 14 non-distributed unique pairs out of 1336 (0.00496s)
 ... worked out indexing for Fourier transform (0.00395s)
 ... initialized storage (0.14615s)
 
 Memory allocated for symmetry things:
           structure:       0.0010 MiB
               basis:       0.5128 MiB
          spacegroup:       0.2577 MiB
             cluster:       0.0345 MiB
               H/S/D:       0.8239 MiB
               total:       1.6301 MiB
                     
 Initialized symmetry handler (1.30831s)
 
 BUILDING REALSPACE MATRIX INDEX
 ... sorted points (0.00209s)
 ... fetched some indices (0.01018s)
 ... distributed indices (0.00479s)
 ... matched transpositions (0.00715s)
 Done building index (0.02447s)
  Obtaining max. number of non-zero basis functions in each batch (get_n_compute_maxes).
  | Maximal number of non-zero basis functions:      389 in task     0
  Allocating        5.062 MB for KS_eigenvector_complex
  Integrating Hamiltonian matrix: batch-based integration.
  Time summed over all CPUs for integration: real work        0.564 s, elapsed        0.564 s
  Integrating overlap matrix.
  Time summed over all CPUs for integration: real work        0.342 s, elapsed        0.342 s
  Decreasing sparse matrix size:
  | Tolerance:  0.1000E-12
  Hamiltonian matrix
  | Array has    25880 nonzero elements out of    31753 elements
  | Sparsity factor is 0.185
  Overlap matrix
  | Array has    25112 nonzero elements out of    31753 elements
  | Sparsity factor is 0.209
  New size of hamiltonian matrix:       26121

  Updating Kohn-Sham eigenvalues and eigenvectors using ELSI and the (modified) LAPACK eigensolver.
  Singularity check in k-point 1, task 0 (analysis for other k-points/tasks may follow below):
  Overlap matrix is not singular
  | Lowest and highest eigenvalues :  0.1775E+00,  0.2661E+01
  Finished singularity check of overlap matrix
  | Time :     0.002 s
  Starting LAPACK eigensolver
  Finished Cholesky decomposition
  | Time :     0.000 s
  Finished transformation to standard eigenproblem
  | Time :     0.000 s
  Finished solving standard eigenproblem
  | Time :     0.001 s
  Finished back-transformation of eigenvectors
  | Time :     0.000 s

  Obtaining occupation numbers and chemical potential using ELSI.
  | Chemical potential (Fermi level):    -4.35817785 eV
  Writing Kohn-Sham eigenvalues.
  K-point:       1 at    0.000000    0.000000    0.000000 (in units of recip. lattice)

  State    Occupation    Eigenvalue [Ha]    Eigenvalue [eV]
      1       2.00000         -65.460604        -1781.27367
      2       2.00000         -65.460604        -1781.27367
      3       2.00000         -65.460604        -1781.27367
      4       2.00000         -65.460604        -1781.27367
      5       2.00000         -65.460604        -1781.27367
      6       2.00000         -65.460604        -1781.27367
      7       2.00000         -65.460604        -1781.27367
      8       2.00000         -65.460604        -1781.27367
      9       2.00000          -5.113606         -139.14830
     10       2.00000          -5.113459         -139.14429
     11       2.00000          -5.113459         -139.14429
     12       2.00000          -5.113459         -139.14429
     13       2.00000          -5.113459         -139.14429
     14       2.00000          -5.113459         -139.14429
     15       2.00000          -5.113459         -139.14429
     16       2.00000          -5.113311         -139.14026
     17       2.00000          -3.527006          -95.97473
     18       2.00000          -3.527006          -95.97473
     19       2.00000          -3.527006          -95.97473
     20       2.00000          -3.527006          -95.97473
     21       2.00000          -3.527006          -95.97473
     22       2.00000          -3.527006          -95.97473
     23       2.00000          -3.526918          -95.97232
     24       2.00000          -3.526918          -95.97232
     25       2.00000          -3.526918          -95.97232
     26       2.00000          -3.526601          -95.96370
     27       2.00000          -3.526601          -95.96370
     28       2.00000          -3.526601          -95.96370
     29       2.00000          -3.526601          -95.96370
     30       2.00000          -3.526601          -95.96370
     31       2.00000          -3.526601          -95.96370
     32       2.00000          -3.526287          -95.95515
     33       2.00000          -3.526287          -95.95515
     34       2.00000          -3.526287          -95.95515
     35       2.00000          -3.526197          -95.95271
     36       2.00000          -3.526197          -95.95271
     37       2.00000          -3.526197          -95.95271
     38       2.00000          -3.526197          -95.95271
     39       2.00000          -3.526197          -95.95271
     40       2.00000          -3.526197          -95.95271
     41       2.00000          -0.653955          -17.79502
     42       2.00000          -0.500040          -13.60679
     43       2.00000          -0.500040          -13.60679
     44       2.00000          -0.500040          -13.60679
     45       2.00000          -0.500040          -13.60679
     46       2.00000          -0.500040          -13.60679
     47       2.00000          -0.500040          -13.60679
     48       2.00000          -0.319786           -8.70183
     49       2.00000          -0.319786           -8.70183
     50       2.00000          -0.319786           -8.70183
     51       2.00000          -0.319786           -8.70183
     52       2.00000          -0.319786           -8.70183
     53       2.00000          -0.319786           -8.70183
     54       2.00000          -0.207127           -5.63622
     55       2.00000          -0.207127           -5.63622
     56       2.00000          -0.207127           -5.63622
     57       0.00000          -0.107083           -2.91388
     58       0.00000          -0.107083           -2.91388
     59       0.00000          -0.107083           -2.91388
     60       0.00000          -0.107083           -2.91388
     61       0.00000          -0.107083           -2.91388
     62       0.00000          -0.107083           -2.91388
     63       0.00000          -0.095978           -2.61170
     64       0.00000          -0.093632           -2.54786
     65       0.00000          -0.093632           -2.54786
     66       0.00000          -0.093632           -2.54786
     67       0.00000           0.193178            5.25664
     68       0.00000           0.193178            5.25664
     69       0.00000           0.193178            5.25664
     70       0.00000           0.193178            5.25664
     71       0.00000           0.193178            5.25664
     72       0.00000           0.193178            5.25664

  What follows are estimated values for band gap, HOMO, LUMO, etc.
  | They are estimated on a discrete k-point grid and not necessarily exact.
  | For converged numbers, create a DOS and/or band structure plot on a denser k-grid.

  Highest occupied state (VBM) at     -5.63621540 eV (relative to internal zero)
  | Occupation number:      2.00000000
  | K-point:       1 at    0.000000    0.000000    0.000000 (in units of recip. lattice)

  Lowest unoccupied state (CBM) at    -3.54903499 eV (relative to internal zero)
  | Occupation number:      0.00000000
  | K-point:       5 at    0.000000    0.250000    0.000000 (in units of recip. lattice)

  ESTIMATED overall HOMO-LUMO gap:      2.08718041 eV between HOMO at k-point 1 and LUMO at k-point 5
  | This appears to be an indirect band gap.
  | Smallest direct gap :      2.72234035 eV for k_point 1 at    0.000000    0.250000    0.000000 (in units of recip. lattice)
  The gap value is above 0.2 eV. Unless you are using a very sparse k-point grid,
  this system is most likely an insulator or a semiconductor.
  Calculating total energy contributions from superposition of free atom densities.

  Total energy components:
  | Sum of eigenvalues            :       -1311.20752409 Ha      -35679.77209722 eV
  | XC energy correction          :        -165.41301986 Ha       -4501.11728470 eV
  | XC potential correction       :         213.63436293 Ha        5813.28679207 eV
  | Free-atom electrostatic energy:       -1052.00441437 Ha      -28626.49661501 eV
  | Hartree energy correction     :           0.00000000 Ha           0.00000000 eV
  | Entropy correction            :           0.00000000 Ha           0.00000000 eV
  | ---------------------------
  | Total energy                  :       -2314.99059538 Ha      -62994.09920485 eV
  | Total energy, T -> 0          :       -2314.99059538 Ha      -62994.09920485 eV  <-- do not rely on this value for anything but (periodic) metals
  | Electronic free energy        :       -2314.99059538 Ha      -62994.09920485 eV

  Derived energy quantities:
  | Kinetic energy                :        2311.60807823 Ha       62902.05623008 eV
  | Electrostatic energy          :       -4461.18565376 Ha     -121395.03815023 eV
  | Energy correction for multipole
  | error in Hartree potential    :           0.00000000 Ha           0.00000000 eV
  | Sum of eigenvalues per atom                           :       -4459.97151215 eV
  | Total energy (T->0) per atom                          :       -7874.26240061 eV  <-- do not rely on this value for anything but (periodic) metals
  | Electronic free energy per atom                       :       -7874.26240061 eV
  Initialize hartree_potential_storage
  Max. number of atoms included in rho_multipole:            8

  End scf initialization - timings             :  max(cpu_time)    wall_clock(cpu1)
  | Time for scf. initialization               :        3.833 s           3.864 s
  | Boundary condition initialization          :        0.528 s           0.531 s
  | Integration                                :        0.908 s           0.909 s
  | Solution of K.-S. eqns.                    :        0.229 s           0.232 s
  | Grid partitioning                          :        0.135 s           0.136 s
  | Preloading free-atom quantities on grid    :        0.001 s           0.001 s
  | Free-atom superposition energy             :        0.129 s           0.129 s
  | Total energy evaluation                    :        0.001 s           0.002 s

  Partial memory accounting:
  | Current value for overall tracked memory usage:
  |   Minimum:        5.561 MB (on task 0)
  |   Maximum:        5.561 MB (on task 0)
  |   Average:        5.561 MB
  | Peak value for overall tracked memory usage:
  |   Minimum:        7.865 MB (on task 0 after allocating wave)
  |   Maximum:        7.865 MB (on task 0 after allocating wave)
  |   Average:        7.865 MB
  | Largest tracked array allocation so far:
  |   Minimum:        5.062 MB (KS_eigenvector_complex on task 0)
  |   Maximum:        5.062 MB (KS_eigenvector_complex on task 0)
  |   Average:        5.062 MB
  Note:  These values currently only include a subset of arrays which are explicitly tracked.
  The "true" memory usage will be greater.
------------------------------------------------------------

------------------------------------------------------------
          Begin self-consistency iteration #    1

  Date     :  20191125, Time     :  143105.050
------------------------------------------------------------
  Evaluating new KS density using the density matrix
  Evaluating density matrix
  Time summed over all CPUs for getting density from density matrix: real work        0.019 s, elapsed        0.019 s
  Integration grid: deviation in total charge (<rho> - N_e) =   1.563194E-13
  Pulay mixing of updated and previous charge densities.

  Evaluating partitioned Hartree potential by multipole expansion.
  | Analytical far-field extrapolation by fixed multipoles:
  | Hartree multipole sum: apparent total charge =   0.549709E+00
  Summing up the Hartree potential.
  Time summed over all CPUs for potential: real work        0.113 s, elapsed        0.113 s
  | RMS charge density error from multipole expansion :   0.867861E-03
  | Average real-space part of the electrostatic potential :     -0.63013811 eV

  Integrating Hamiltonian matrix: batch-based integration.
  Time summed over all CPUs for integration: real work        0.561 s, elapsed        0.561 s

  Updating Kohn-Sham eigenvalues and eigenvectors using ELSI and the (modified) LAPACK eigensolver.
  Starting LAPACK eigensolver
  Finished Cholesky decomposition
  | Time :     0.000 s
  Finished transformation to standard eigenproblem
  | Time :     0.000 s
  Finished solving standard eigenproblem
  | Time :     0.001 s
  Finished back-transformation of eigenvectors
  | Time :     0.000 s

  Obtaining occupation numbers and chemical potential using ELSI.
  | Chemical potential (Fermi level):    -4.68032659 eV
  Writing Kohn-Sham eigenvalues.
  K-point:       1 at    0.000000    0.000000    0.000000 (in units of recip. lattice)

  State    Occupation    Eigenvalue [Ha]    Eigenvalue [eV]
      1       2.00000         -65.605646        -1785.22045
      2       2.00000         -65.605646        -1785.22045
      3       2.00000         -65.605646        -1785.22045
      4       2.00000         -65.605646        -1785.22045
      5       2.00000         -65.605646        -1785.22045
      6       2.00000         -65.605646        -1785.22045
      7       2.00000         -65.605646        -1785.22045
      8       2.00000         -65.605646        -1785.22045
      9       2.00000          -5.172994         -140.76433
     10       2.00000          -5.172858         -140.76062
     11       2.00000          -5.172858         -140.76062
     12       2.00000          -5.172858         -140.76062
     13       2.00000          -5.172858         -140.76062
     14       2.00000          -5.172858         -140.76062
     15       2.00000          -5.172858         -140.76062
     16       2.00000          -5.172721         -140.75689
     17       2.00000          -3.590326          -97.69775
     18       2.00000          -3.590326          -97.69775
     19       2.00000          -3.590326          -97.69775
     20       2.00000          -3.590326          -97.69775
     21       2.00000          -3.590326          -97.69775
     22       2.00000          -3.590326          -97.69775
     23       2.00000          -3.590245          -97.69553
     24       2.00000          -3.590245          -97.69553
     25       2.00000          -3.590245          -97.69553
     26       2.00000          -3.589950          -97.68750
     27       2.00000          -3.589950          -97.68750
     28       2.00000          -3.589950          -97.68750
     29       2.00000          -3.589950          -97.68750
     30       2.00000          -3.589950          -97.68750
     31       2.00000          -3.589950          -97.68750
     32       2.00000          -3.589660          -97.67962
     33       2.00000          -3.589660          -97.67962
     34       2.00000          -3.589660          -97.67962
     35       2.00000          -3.589587          -97.67764
     36       2.00000          -3.589587          -97.67764
     37       2.00000          -3.589587          -97.67764
     38       2.00000          -3.589587          -97.67764
     39       2.00000          -3.589587          -97.67764
     40       2.00000          -3.589587          -97.67764
     41       2.00000          -0.656314          -17.85921
     42       2.00000          -0.504506          -13.72830
     43       2.00000          -0.504506          -13.72830
     44       2.00000          -0.504506          -13.72830
     45       2.00000          -0.504506          -13.72830
     46       2.00000          -0.504506          -13.72830
     47       2.00000          -0.504506          -13.72830
     48       2.00000          -0.322294           -8.77007
     49       2.00000          -0.322294           -8.77007
     50       2.00000          -0.322294           -8.77007
     51       2.00000          -0.322294           -8.77007
     52       2.00000          -0.322294           -8.77007
     53       2.00000          -0.322294           -8.77007
     54       2.00000          -0.213356           -5.80570
     55       2.00000          -0.213356           -5.80570
     56       2.00000          -0.213356           -5.80570
     57       0.00000          -0.111148           -3.02449
     58       0.00000          -0.111148           -3.02449
     59       0.00000          -0.111148           -3.02449
     60       0.00000          -0.111148           -3.02449
     61       0.00000          -0.111148           -3.02449
     62       0.00000          -0.111148           -3.02449
     63       0.00000          -0.107464           -2.92426
     64       0.00000          -0.098631           -2.68389
     65       0.00000          -0.098631           -2.68389
     66       0.00000          -0.098631           -2.68389
     67       0.00000           0.183205            4.98526
     68       0.00000           0.183205            4.98526
     69       0.00000           0.183205            4.98526
     70       0.00000           0.183205            4.98526
     71       0.00000           0.183205            4.98526
     72       0.00000           0.183205            4.98526

  What follows are estimated values for band gap, HOMO, LUMO, etc.
  | They are estimated on a discrete k-point grid and not necessarily exact.
  | For converged numbers, create a DOS and/or band structure plot on a denser k-grid.

  Highest occupied state (VBM) at     -5.80570075 eV (relative to internal zero)
  | Occupation number:      2.00000000
  | K-point:       1 at    0.000000    0.000000    0.000000 (in units of recip. lattice)

  Lowest unoccupied state (CBM) at    -3.62554281 eV (relative to internal zero)
  | Occupation number:      0.00000000
  | K-point:      49 at    0.750000    0.000000    0.000000 (in units of recip. lattice)

  ESTIMATED overall HOMO-LUMO gap:      2.18015794 eV between HOMO at k-point 1 and LUMO at k-point 49
  | This appears to be an indirect band gap.
  | Smallest direct gap :      2.78121068 eV for k_point 1 at    0.750000    0.000000    0.000000 (in units of recip. lattice)
  The gap value is above 0.2 eV. Unless you are using a very sparse k-point grid,
  this system is most likely an insulator or a semiconductor.

  Total energy components:
  | Sum of eigenvalues            :       -1317.63080408 Ha      -35854.55843878 eV
  | XC energy correction          :        -165.44873580 Ha       -4502.08916501 eV
  | XC potential correction       :         213.68062012 Ha        5814.54551428 eV
  | Free-atom electrostatic energy:       -1052.00441437 Ha      -28626.49661501 eV
  | Hartree energy correction     :           6.40902084 Ha         174.39833027 eV
  | Entropy correction            :           0.00000000 Ha           0.00000000 eV
  | ---------------------------
  | Total energy                  :       -2314.99431329 Ha      -62994.20037425 eV
  | Total energy, T -> 0          :       -2314.99431329 Ha      -62994.20037425 eV  <-- do not rely on this value for anything but (periodic) metals
  | Electronic free energy        :       -2314.99431329 Ha      -62994.20037425 eV

  Derived energy quantities:
  | Kinetic energy                :        2295.67551871 Ha       62468.50922673 eV
  | Electrostatic energy          :       -4445.22109619 Ha     -120960.62043598 eV
  | Energy correction for multipole
  | error in Hartree potential    :           0.00299569 Ha           0.08151675 eV
  | Sum of eigenvalues per atom                           :       -4481.81980485 eV
  | Total energy (T->0) per atom                          :       -7874.27504678 eV  <-- do not rely on this value for anything but (periodic) metals
  | Electronic free energy per atom                       :       -7874.27504678 eV

  Self-consistency convergence accuracy:
  | Change of charge density      :  0.2961E+00
  | Change of sum of eigenvalues  : -0.1748E+03 eV
  | Change of total energy        : -0.1012E+00 eV

  End self-consistency iteration #     1       :  max(cpu_time)    wall_clock(cpu1)
  | Time for this iteration                    :        1.040 s           1.052 s
  | Charge density update                      :        0.058 s           0.059 s
  | Density mixing                             :        0.001 s           0.001 s
  | Hartree multipole update                   :        0.022 s           0.023 s
  | Hartree multipole summation                :        0.210 s           0.211 s
  | Integration                                :        0.562 s           0.562 s
  | Solution of K.-S. eqns.                    :        0.182 s           0.184 s
  | Total energy evaluation                    :        0.001 s           0.001 s

  Partial memory accounting:
  | Current value for overall tracked memory usage:
  |   Minimum:        5.561 MB (on task 0)
  |   Maximum:        5.561 MB (on task 0)
  |   Average:        5.561 MB
  | Peak value for overall tracked memory usage:
  |   Minimum:        8.781 MB (on task 0 after allocating gradient_basis_wave)
  |   Maximum:        8.781 MB (on task 0 after allocating gradient_basis_wave)
  |   Average:        8.781 MB
  | Largest tracked array allocation so far:
  |   Minimum:        5.062 MB (KS_eigenvector_complex on task 0)
  |   Maximum:        5.062 MB (KS_eigenvector_complex on task 0)
  |   Average:        5.062 MB
  Note:  These values currently only include a subset of arrays which are explicitly tracked.
  The "true" memory usage will be greater.
------------------------------------------------------------

------------------------------------------------------------
          Begin self-consistency iteration #    2

  Date     :  20191125, Time     :  143106.104
------------------------------------------------------------
  Evaluating new KS density using the density matrix
  Evaluating density matrix
  Time summed over all CPUs for getting density from density matrix: real work        0.017 s, elapsed        0.017 s
  Integration grid: deviation in total charge (<rho> - N_e) =   2.842171E-13
  Pulay mixing of updated and previous charge densities.

  Evaluating partitioned Hartree potential by multipole expansion.
  | Analytical far-field extrapolation by fixed multipoles:
  | Hartree multipole sum: apparent total charge =   0.550465E+00
  Summing up the Hartree potential.
  Time summed over all CPUs for potential: real work        0.116 s, elapsed        0.116 s
  | RMS charge density error from multipole expansion :   0.345948E-02
  | Average real-space part of the electrostatic potential :     -0.62090626 eV

  Integrating Hamiltonian matrix: batch-based integration.
  Time summed over all CPUs for integration: real work        0.560 s, elapsed        0.560 s

  Updating Kohn-Sham eigenvalues and eigenvectors using ELSI and the (modified) LAPACK eigensolver.
  Starting LAPACK eigensolver
  Finished Cholesky decomposition
  | Time :     0.000 s
  Finished transformation to standard eigenproblem
  | Time :     0.000 s
  Finished solving standard eigenproblem
  | Time :     0.002 s
  Finished back-transformation of eigenvectors
  | Time :     0.000 s

  Obtaining occupation numbers and chemical potential using ELSI.
  | Chemical potential (Fermi level):    -4.62261180 eV
  What follows are estimated values for band gap, HOMO, LUMO, etc.
  | They are estimated on a discrete k-point grid and not necessarily exact.
  | For converged numbers, create a DOS and/or band structure plot on a denser k-grid.

  Highest occupied state (VBM) at     -5.77181027 eV (relative to internal zero)
  | Occupation number:      2.00000000
  | K-point:       1 at    0.000000    0.000000    0.000000 (in units of recip. lattice)

  Lowest unoccupied state (CBM) at    -3.59886815 eV (relative to internal zero)
  | Occupation number:      0.00000000
  | K-point:      17 at    0.250000    0.000000    0.000000 (in units of recip. lattice)

  ESTIMATED overall HOMO-LUMO gap:      2.17294212 eV between HOMO at k-point 1 and LUMO at k-point 17
  | This appears to be an indirect band gap.
  | Smallest direct gap :      2.77816160 eV for k_point 1 at    0.250000    0.000000    0.000000 (in units of recip. lattice)
  The gap value is above 0.2 eV. Unless you are using a very sparse k-point grid,
  this system is most likely an insulator or a semiconductor.

  Checking to see if s.c.f. parameters should be adjusted.
  The system likely has a gap. Increased the default Pulay mixing parameter (charge_mix_param). Value:   0.200000 .
  Kept the default occupation width. Value:   0.010000 eV.

  Total energy components:
  | Sum of eigenvalues            :       -1316.76536336 Ha      -35831.00859859 eV
  | XC energy correction          :        -165.58582984 Ha       -4505.81968359 eV
  | XC potential correction       :         213.85836953 Ha        5819.38232193 eV
  | Free-atom electrostatic energy:       -1052.00441437 Ha      -28626.49661501 eV
  | Hartree energy correction     :           5.50532818 Ha         149.80760200 eV
  | Entropy correction            :           0.00000000 Ha           0.00000000 eV
  | ---------------------------
  | Total energy                  :       -2314.99190985 Ha      -62994.13497326 eV
  | Total energy, T -> 0          :       -2314.99190985 Ha      -62994.13497326 eV  <-- do not rely on this value for anything but (periodic) metals
  | Electronic free energy        :       -2314.99190985 Ha      -62994.13497326 eV

  Derived energy quantities:
  | Kinetic energy                :        2298.42451189 Ha       62543.31313726 eV
  | Electrostatic energy          :       -4447.83059190 Ha     -121031.62842692 eV
  | Energy correction for multipole
  | error in Hartree potential    :           0.00972524 Ha           0.26463713 eV
  | Sum of eigenvalues per atom                           :       -4478.87607482 eV
  | Total energy (T->0) per atom                          :       -7874.26687166 eV  <-- do not rely on this value for anything but (periodic) metals
  | Electronic free energy per atom                       :       -7874.26687166 eV

  Self-consistency convergence accuracy:
  | Change of charge density      :  0.2938E+00
  | Change of sum of eigenvalues  :  0.2355E+02 eV
  | Change of total energy        :  0.6540E-01 eV

  End self-consistency iteration #     2       :  max(cpu_time)    wall_clock(cpu1)
  | Time for this iteration                    :        1.044 s           1.112 s
  | Charge density update                      :        0.057 s           0.058 s
  | Density mixing                             :        0.003 s           0.003 s
  | Hartree multipole update                   :        0.022 s           0.022 s
  | Hartree multipole summation                :        0.213 s           0.213 s
  | Integration                                :        0.561 s           0.570 s
  | Solution of K.-S. eqns.                    :        0.186 s           0.240 s
  | Total energy evaluation                    :        0.001 s           0.002 s

  Partial memory accounting:
  | Current value for overall tracked memory usage:
  |   Minimum:        5.562 MB (on task 0)
  |   Maximum:        5.562 MB (on task 0)
  |   Average:        5.562 MB
  | Peak value for overall tracked memory usage:
  |   Minimum:        8.781 MB (on task 0 after allocating gradient_basis_wave)
  |   Maximum:        8.781 MB (on task 0 after allocating gradient_basis_wave)
  |   Average:        8.781 MB
  | Largest tracked array allocation so far:
  |   Minimum:        5.062 MB (KS_eigenvector_complex on task 0)
  |   Maximum:        5.062 MB (KS_eigenvector_complex on task 0)
  |   Average:        5.062 MB
  Note:  These values currently only include a subset of arrays which are explicitly tracked.
  The "true" memory usage will be greater.
------------------------------------------------------------

------------------------------------------------------------
          Begin self-consistency iteration #    3

  Date     :  20191125, Time     :  143107.219
------------------------------------------------------------
  Evaluating new KS density using the density matrix
  Evaluating density matrix
  Time summed over all CPUs for getting density from density matrix: real work        0.017 s, elapsed        0.017 s
  Integration grid: deviation in total charge (<rho> - N_e) =   1.421085E-14
  Pulay mixing of updated and previous charge densities.

  Evaluating partitioned Hartree potential by multipole expansion.
  | Analytical far-field extrapolation by fixed multipoles:
  | Hartree multipole sum: apparent total charge =   0.553902E+00
  Summing up the Hartree potential.
  Time summed over all CPUs for potential: real work        0.122 s, elapsed        0.122 s
  | RMS charge density error from multipole expansion :   0.152954E-01
  | Average real-space part of the electrostatic potential :     -0.57960926 eV

  Integrating Hamiltonian matrix: batch-based integration.
  Time summed over all CPUs for integration: real work        0.563 s, elapsed        0.563 s

  Updating Kohn-Sham eigenvalues and eigenvectors using ELSI and the (modified) LAPACK eigensolver.
  Starting LAPACK eigensolver
  Finished Cholesky decomposition
  | Time :     0.000 s
  Finished transformation to standard eigenproblem
  | Time :     0.001 s
  Finished solving standard eigenproblem
  | Time :     0.002 s
  Finished back-transformation of eigenvectors
  | Time :     0.000 s

  Obtaining occupation numbers and chemical potential using ELSI.
  | Chemical potential (Fermi level):    -4.35990465 eV
  What follows are estimated values for band gap, HOMO, LUMO, etc.
  | They are estimated on a discrete k-point grid and not necessarily exact.
  | For converged numbers, create a DOS and/or band structure plot on a denser k-grid.

  Highest occupied state (VBM) at     -5.61077625 eV (relative to internal zero)
  | Occupation number:      2.00000000
  | K-point:       1 at    0.000000    0.000000    0.000000 (in units of recip. lattice)

  Lowest unoccupied state (CBM) at    -3.47151272 eV (relative to internal zero)
  | Occupation number:      0.00000000
  | K-point:      49 at    0.750000    0.000000    0.000000 (in units of recip. lattice)

  ESTIMATED overall HOMO-LUMO gap:      2.13926353 eV between HOMO at k-point 1 and LUMO at k-point 49
  | This appears to be an indirect band gap.
  | Smallest direct gap :      2.76240064 eV for k_point 1 at    0.750000    0.000000    0.000000 (in units of recip. lattice)
  The gap value is above 0.2 eV. Unless you are using a very sparse k-point grid,
  this system is most likely an insulator or a semiconductor.

  Total energy components:
  | Sum of eigenvalues            :       -1312.84836307 Ha      -35724.42159780 eV
  | XC energy correction          :        -166.21820559 Ha       -4523.02750313 eV
  | XC potential correction       :         214.67793428 Ha        5841.68381328 eV
  | Free-atom electrostatic energy:       -1052.00441437 Ha      -28626.49661501 eV
  | Hartree energy correction     :           1.40559855 Ha          38.24828268 eV
  | Entropy correction            :           0.00000000 Ha           0.00000000 eV
  | ---------------------------
  | Total energy                  :       -2314.98745020 Ha      -62994.01361999 eV
  | Total energy, T -> 0          :       -2314.98745020 Ha      -62994.01361999 eV  <-- do not rely on this value for anything but (periodic) metals
  | Electronic free energy        :       -2314.98745020 Ha      -62994.01361999 eV

  Derived energy quantities:
  | Kinetic energy                :        2310.86711499 Ha       62881.89359437 eV
  | Electrostatic energy          :       -4459.63635960 Ha     -121352.87971123 eV
  | Energy correction for multipole
  | error in Hartree potential    :           0.04023855 Ha           1.09494674 eV
  | Sum of eigenvalues per atom                           :       -4465.55269973 eV
  | Total energy (T->0) per atom                          :       -7874.25170250 eV  <-- do not rely on this value for anything but (periodic) metals
  | Electronic free energy per atom                       :       -7874.25170250 eV

  Self-consistency convergence accuracy:
  | Change of charge density      :  0.2391E+00
  | Change of sum of eigenvalues  :  0.1066E+03 eV
  | Change of total energy        :  0.1214E+00 eV

  End self-consistency iteration #     3       :  max(cpu_time)    wall_clock(cpu1)
  | Time for this iteration                    :        1.051 s           1.061 s
  | Charge density update                      :        0.056 s           0.057 s
  | Density mixing                             :        0.004 s           0.004 s
  | Hartree multipole update                   :        0.022 s           0.023 s
  | Hartree multipole summation                :        0.219 s           0.219 s
  | Integration                                :        0.564 s           0.564 s
  | Solution of K.-S. eqns.                    :        0.184 s           0.188 s
  | Total energy evaluation                    :        0.001 s           0.002 s

  Partial memory accounting:
  | Current value for overall tracked memory usage:
  |   Minimum:        5.562 MB (on task 0)
  |   Maximum:        5.562 MB (on task 0)
  |   Average:        5.562 MB
  | Peak value for overall tracked memory usage:
  |   Minimum:        8.782 MB (on task 0 after allocating gradient_basis_wave)
  |   Maximum:        8.782 MB (on task 0 after allocating gradient_basis_wave)
  |   Average:        8.782 MB
  | Largest tracked array allocation so far:
  |   Minimum:        5.062 MB (KS_eigenvector_complex on task 0)
  |   Maximum:        5.062 MB (KS_eigenvector_complex on task 0)
  |   Average:        5.062 MB
  Note:  These values currently only include a subset of arrays which are explicitly tracked.
  The "true" memory usage will be greater.
------------------------------------------------------------

------------------------------------------------------------
          Begin self-consistency iteration #    4

  Date     :  20191125, Time     :  143108.283
------------------------------------------------------------
  Evaluating new KS density using the density matrix
  Evaluating density matrix
  Time summed over all CPUs for getting density from density matrix: real work        0.018 s, elapsed        0.018 s
  Integration grid: deviation in total charge (<rho> - N_e) =  -7.105427E-14
  Pulay mixing of updated and previous charge densities.

  Evaluating partitioned Hartree potential by multipole expansion.
  | Analytical far-field extrapolation by fixed multipoles:
  | Hartree multipole sum: apparent total charge =   0.553903E+00
  Summing up the Hartree potential.
  Time summed over all CPUs for potential: real work        0.122 s, elapsed        0.122 s
  | RMS charge density error from multipole expansion :   0.152991E-01
  | Average real-space part of the electrostatic potential :     -0.58015732 eV

  Integrating Hamiltonian matrix: batch-based integration.
  Time summed over all CPUs for integration: real work        0.560 s, elapsed        0.560 s

  Updating Kohn-Sham eigenvalues and eigenvectors using ELSI and the (modified) LAPACK eigensolver.
  Starting LAPACK eigensolver
  Finished Cholesky decomposition
  | Time :     0.000 s
  Finished transformation to standard eigenproblem
  | Time :     0.000 s
  Finished solving standard eigenproblem
  | Time :     0.001 s
  Finished back-transformation of eigenvectors
  | Time :     0.000 s

  Obtaining occupation numbers and chemical potential using ELSI.
  | Chemical potential (Fermi level):    -4.36110697 eV
  What follows are estimated values for band gap, HOMO, LUMO, etc.
  | They are estimated on a discrete k-point grid and not necessarily exact.
  | For converged numbers, create a DOS and/or band structure plot on a denser k-grid.

  Highest occupied state (VBM) at     -5.61149514 eV (relative to internal zero)
  | Occupation number:      2.00000000
  | K-point:       1 at    0.000000    0.000000    0.000000 (in units of recip. lattice)

  Lowest unoccupied state (CBM) at    -3.47200074 eV (relative to internal zero)
  | Occupation number:      0.00000000
  | K-point:      49 at    0.750000    0.000000    0.000000 (in units of recip. lattice)

  ESTIMATED overall HOMO-LUMO gap:      2.13949440 eV between HOMO at k-point 1 and LUMO at k-point 49
  | This appears to be an indirect band gap.
  | Smallest direct gap :      2.76253334 eV for k_point 1 at    0.750000    0.000000    0.000000 (in units of recip. lattice)
  The gap value is above 0.2 eV. Unless you are using a very sparse k-point grid,
  this system is most likely an insulator or a semiconductor.

  Total energy components:
  | Sum of eigenvalues            :       -1312.87053476 Ha      -35725.02492011 eV
  | XC energy correction          :        -166.21565787 Ha       -4522.95817613 eV
  | XC potential correction       :         214.67459333 Ha        5841.59290153 eV
  | Free-atom electrostatic energy:       -1052.00441437 Ha      -28626.49661501 eV
  | Hartree energy correction     :           1.42858492 Ha          38.87377368 eV
  | Entropy correction            :           0.00000000 Ha           0.00000000 eV
  | ---------------------------
  | Total energy                  :       -2314.98742874 Ha      -62994.01303605 eV
  | Total energy, T -> 0          :       -2314.98742874 Ha      -62994.01303605 eV  <-- do not rely on this value for anything but (periodic) metals
  | Electronic free energy        :       -2314.98742874 Ha      -62994.01303605 eV

  Derived energy quantities:
  | Kinetic energy                :        2310.83301249 Ha       62880.96561813 eV
  | Electrostatic energy          :       -4459.60478336 Ha     -121352.02047804 eV
  | Energy correction for multipole
  | error in Hartree potential    :           0.04021498 Ha           1.09430517 eV
  | Sum of eigenvalues per atom                           :       -4465.62811501 eV
  | Total energy (T->0) per atom                          :       -7874.25162951 eV  <-- do not rely on this value for anything but (periodic) metals
  | Electronic free energy per atom                       :       -7874.25162951 eV

  Self-consistency convergence accuracy:
  | Change of charge density      :  0.1338E-01
  | Change of sum of eigenvalues  : -0.6033E+00 eV
  | Change of total energy        :  0.5839E-03 eV

  End self-consistency iteration #     4       :  max(cpu_time)    wall_clock(cpu1)
  | Time for this iteration                    :        1.051 s           1.059 s
  | Charge density update                      :        0.058 s           0.059 s
  | Density mixing                             :        0.006 s           0.006 s
  | Hartree multipole update                   :        0.022 s           0.023 s
  | Hartree multipole summation                :        0.219 s           0.220 s
  | Integration                                :        0.561 s           0.562 s
  | Solution of K.-S. eqns.                    :        0.182 s           0.184 s
  | Total energy evaluation                    :        0.001 s           0.002 s

  Partial memory accounting:
  | Current value for overall tracked memory usage:
  |   Minimum:        5.562 MB (on task 0)
  |   Maximum:        5.562 MB (on task 0)
  |   Average:        5.562 MB
  | Peak value for overall tracked memory usage:
  |   Minimum:        8.782 MB (on task 0 after allocating gradient_basis_wave)
  |   Maximum:        8.782 MB (on task 0 after allocating gradient_basis_wave)
  |   Average:        8.782 MB
  | Largest tracked array allocation so far:
  |   Minimum:        5.062 MB (KS_eigenvector_complex on task 0)
  |   Maximum:        5.062 MB (KS_eigenvector_complex on task 0)
  |   Average:        5.062 MB
  Note:  These values currently only include a subset of arrays which are explicitly tracked.
  The "true" memory usage will be greater.
------------------------------------------------------------

------------------------------------------------------------
          Begin self-consistency iteration #    5

  Date     :  20191125, Time     :  143109.345
------------------------------------------------------------
  Evaluating new KS density using the density matrix
  Evaluating density matrix
  Time summed over all CPUs for getting density from density matrix: real work        0.017 s, elapsed        0.017 s
  Integration grid: deviation in total charge (<rho> - N_e) =  -2.842171E-14
  Pulay mixing of updated and previous charge densities.

  Evaluating partitioned Hartree potential by multipole expansion.
  | Analytical far-field extrapolation by fixed multipoles:
  | Hartree multipole sum: apparent total charge =   0.553901E+00
  Summing up the Hartree potential.
  Time summed over all CPUs for potential: real work        0.122 s, elapsed        0.122 s
  | RMS charge density error from multipole expansion :   0.153101E-01
  | Average real-space part of the electrostatic potential :     -0.58291817 eV

  Integrating Hamiltonian matrix: batch-based integration.
  Time summed over all CPUs for integration: real work        0.561 s, elapsed        0.561 s

  Updating Kohn-Sham eigenvalues and eigenvectors using ELSI and the (modified) LAPACK eigensolver.
  Starting LAPACK eigensolver
  Finished Cholesky decomposition
  | Time :     0.000 s
  Finished transformation to standard eigenproblem
  | Time :     0.001 s
  Finished solving standard eigenproblem
  | Time :     0.001 s
  Finished back-transformation of eigenvectors
  | Time :     0.000 s

  Obtaining occupation numbers and chemical potential using ELSI.
  | Chemical potential (Fermi level):    -4.36699887 eV
  What follows are estimated values for band gap, HOMO, LUMO, etc.
  | They are estimated on a discrete k-point grid and not necessarily exact.
  | For converged numbers, create a DOS and/or band structure plot on a denser k-grid.

  Highest occupied state (VBM) at     -5.61507164 eV (relative to internal zero)
  | Occupation number:      2.00000000
  | K-point:       1 at    0.000000    0.000000    0.000000 (in units of recip. lattice)

  Lowest unoccupied state (CBM) at    -3.47441827 eV (relative to internal zero)
  | Occupation number:      0.00000000
  | K-point:      17 at    0.250000    0.000000    0.000000 (in units of recip. lattice)

  ESTIMATED overall HOMO-LUMO gap:      2.14065338 eV between HOMO at k-point 1 and LUMO at k-point 17
  | This appears to be an indirect band gap.
  | Smallest direct gap :      2.76321359 eV for k_point 1 at    0.250000    0.000000    0.000000 (in units of recip. lattice)
  The gap value is above 0.2 eV. Unless you are using a very sparse k-point grid,
  this system is most likely an insulator or a semiconductor.

  Total energy components:
  | Sum of eigenvalues            :       -1312.97678467 Ha      -35727.91612713 eV
  | XC energy correction          :        -166.20350293 Ha       -4522.62742338 eV
  | XC potential correction       :         214.65865627 Ha        5841.15923206 eV
  | Free-atom electrostatic energy:       -1052.00441437 Ha      -28626.49661501 eV
  | Hartree energy correction     :           1.53872081 Ha          41.87072356 eV
  | Entropy correction            :           0.00000000 Ha           0.00000000 eV
  | ---------------------------
  | Total energy                  :       -2314.98732488 Ha      -62994.01020990 eV
  | Total energy, T -> 0          :       -2314.98732488 Ha      -62994.01020990 eV  <-- do not rely on this value for anything but (periodic) metals
  | Electronic free energy        :       -2314.98732488 Ha      -62994.01020990 eV

  Derived energy quantities:
  | Kinetic energy                :        2310.67053498 Ha       62876.54438029 eV
  | Electrostatic energy          :       -4459.45435694 Ha     -121347.92716682 eV
  | Energy correction for multipole
  | error in Hartree potential    :           0.04007309 Ha           1.09044437 eV
  | Sum of eigenvalues per atom                           :       -4465.98951589 eV
  | Total energy (T->0) per atom                          :       -7874.25127624 eV  <-- do not rely on this value for anything but (periodic) metals
  | Electronic free energy per atom                       :       -7874.25127624 eV

  Self-consistency convergence accuracy:
  | Change of charge density      :  0.1268E-01
  | Change of sum of eigenvalues  : -0.2891E+01 eV
  | Change of total energy        :  0.2826E-02 eV

  End self-consistency iteration #     5       :  max(cpu_time)    wall_clock(cpu1)
  | Time for this iteration                    :        1.052 s           1.060 s
  | Charge density update                      :        0.057 s           0.058 s
  | Density mixing                             :        0.007 s           0.007 s
  | Hartree multipole update                   :        0.022 s           0.023 s
  | Hartree multipole summation                :        0.219 s           0.220 s
  | Integration                                :        0.563 s           0.563 s
  | Solution of K.-S. eqns.                    :        0.182 s           0.184 s
  | Total energy evaluation                    :        0.001 s           0.002 s

  Partial memory accounting:
  | Current value for overall tracked memory usage:
  |   Minimum:        5.562 MB (on task 0)
  |   Maximum:        5.562 MB (on task 0)
  |   Average:        5.562 MB
  | Peak value for overall tracked memory usage:
  |   Minimum:        8.782 MB (on task 0 after allocating gradient_basis_wave)
  |   Maximum:        8.782 MB (on task 0 after allocating gradient_basis_wave)
  |   Average:        8.782 MB
  | Largest tracked array allocation so far:
  |   Minimum:        5.062 MB (KS_eigenvector_complex on task 0)
  |   Maximum:        5.062 MB (KS_eigenvector_complex on task 0)
  |   Average:        5.062 MB
  Note:  These values currently only include a subset of arrays which are explicitly tracked.
  The "true" memory usage will be greater.
------------------------------------------------------------

------------------------------------------------------------
          Begin self-consistency iteration #    6

  Date     :  20191125, Time     :  143110.408
------------------------------------------------------------
  Evaluating new KS density using the density matrix
  Evaluating density matrix
  Time summed over all CPUs for getting density from density matrix: real work        0.017 s, elapsed        0.017 s
  Integration grid: deviation in total charge (<rho> - N_e) =  -1.847411E-13
  Pulay mixing of updated and previous charge densities.

  Evaluating partitioned Hartree potential by multipole expansion.
  | Analytical far-field extrapolation by fixed multipoles:
  | Hartree multipole sum: apparent total charge =   0.553885E+00
  Summing up the Hartree potential.
  Time summed over all CPUs for potential: real work        0.122 s, elapsed        0.122 s
  | RMS charge density error from multipole expansion :   0.152933E-01
  | Average real-space part of the electrostatic potential :     -0.58678579 eV

  Integrating Hamiltonian matrix: batch-based integration.
  Time summed over all CPUs for integration: real work        0.571 s, elapsed        0.571 s

  Updating Kohn-Sham eigenvalues and eigenvectors using ELSI and the (modified) LAPACK eigensolver.
  Starting LAPACK eigensolver
  Finished Cholesky decomposition
  | Time :     0.000 s
  Finished transformation to standard eigenproblem
  | Time :     0.000 s
  Finished solving standard eigenproblem
  | Time :     0.002 s
  Finished back-transformation of eigenvectors
  | Time :     0.000 s

  Obtaining occupation numbers and chemical potential using ELSI.
  | Chemical potential (Fermi level):    -4.37425977 eV
  What follows are estimated values for band gap, HOMO, LUMO, etc.
  | They are estimated on a discrete k-point grid and not necessarily exact.
  | For converged numbers, create a DOS and/or band structure plot on a denser k-grid.

  Highest occupied state (VBM) at     -5.61976975 eV (relative to internal zero)
  | Occupation number:      2.00000000
  | K-point:       1 at    0.000000    0.000000    0.000000 (in units of recip. lattice)

  Lowest unoccupied state (CBM) at    -3.47752566 eV (relative to internal zero)
  | Occupation number:      0.00000000
  | K-point:      49 at    0.750000    0.000000    0.000000 (in units of recip. lattice)

  ESTIMATED overall HOMO-LUMO gap:      2.14224409 eV between HOMO at k-point 1 and LUMO at k-point 49
  | This appears to be an indirect band gap.
  | Smallest direct gap :      2.76422462 eV for k_point 1 at    0.750000    0.000000    0.000000 (in units of recip. lattice)
  The gap value is above 0.2 eV. Unless you are using a very sparse k-point grid,
  this system is most likely an insulator or a semiconductor.

  Total energy components:
  | Sum of eigenvalues            :       -1313.09504465 Ha      -35731.13414498 eV
  | XC energy correction          :        -166.19040101 Ha       -4522.27090216 eV
  | XC potential correction       :         214.64148404 Ha        5840.69195194 eV
  | Free-atom electrostatic energy:       -1052.00441437 Ha      -28626.49661501 eV
  | Hartree energy correction     :           1.66119589 Ha          45.20344023 eV
  | Entropy correction            :           0.00000000 Ha           0.00000000 eV
  | ---------------------------
  | Total energy                  :       -2314.98718009 Ha      -62994.00626999 eV
  | Total energy, T -> 0          :       -2314.98718009 Ha      -62994.00626999 eV  <-- do not rely on this value for anything but (periodic) metals
  | Electronic free energy        :       -2314.98718009 Ha      -62994.00626999 eV

  Derived energy quantities:
  | Kinetic energy                :        2310.49927483 Ha       62871.88415432 eV
  | Electrostatic energy          :       -4459.29605391 Ha     -121343.61952215 eV
  | Energy correction for multipole
  | error in Hartree potential    :           0.03976901 Ha           1.08216988 eV
  | Sum of eigenvalues per atom                           :       -4466.39176812 eV
  | Total energy (T->0) per atom                          :       -7874.25078375 eV  <-- do not rely on this value for anything but (periodic) metals
  | Electronic free energy per atom                       :       -7874.25078375 eV

  Self-consistency convergence accuracy:
  | Change of charge density      :  0.9330E-02
[...]
   Total forces(   6)            :  0.149997E-11 -0.148081E-11  0.112804E-11
  atom #    7
   Hellmann-Feynman              : -0.341133E-13 -0.895436E-13 -0.326895E-13
   Ionic forces                  :  0.000000E+00  0.000000E+00  0.000000E+00
   Multipole                     :  0.123700E-16  0.281781E-16 -0.200404E-16
   Pulay + GGA                   : -0.682573E-11 -0.195569E-11  0.257111E-11
   ----------------------------------------------------------------
   Total forces(   7)            : -0.685984E-11 -0.204521E-11  0.253840E-11
  atom #    8
   Hellmann-Feynman              :  0.102053E-12  0.437374E-13 -0.326458E-13
   Ionic forces                  :  0.000000E+00  0.000000E+00  0.000000E+00
   Multipole                     : -0.223008E-16 -0.223008E-16 -0.231719E-16
   Pulay + GGA                   :  0.146150E-11 -0.146150E-11  0.116285E-11
   ----------------------------------------------------------------
   Total forces(   8)            :  0.156353E-11 -0.141779E-11  0.113018E-11


  Analytical stress tensor components [eV]         xx                  yy                  zz                  xy                  xz                  yz
  -----------------------------------------------------------------------------------------------------------------------------------------------------------
    Nuclear Hellmann-Feynman      :    -0.1631792517E+02   -0.1631792517E+02   -0.1631792517E+02    0.1043370435E-13    0.1167495401E-13    0.1312958953E-13
    Multipole Hellmann-Feynman    :    -0.1748157641E+03   -0.1748157641E+03   -0.1748157641E+03    0.1933361264E-12   -0.5670496340E-15    0.1106405387E-12
    On-site Multipole corrections :    -0.2948524173E+02   -0.2948524173E+02   -0.2948524173E+02   -0.1933485159E-12   -0.1324226095E-13   -0.5853324211E-13
    Strain deriv. of the orbitals :     0.1797149827E+03    0.1797149827E+03    0.1797149827E+03    0.0000000000E+00   -0.7665966547E-13   -0.2009011923E-12
    On-site kinetic E corrections :     0.3409646481E+02    0.3409646481E+02    0.3409646481E+02    0.1450113869E-12   -0.6703848507E-13   -0.5192465026E-13
  -----------------------------------------------------------------------------------------------------------------------------------------------------------
  Sum of all contributions        :    -0.6807483427E+01   -0.6807483427E+01   -0.6807483427E+01    0.1554327018E-12   -0.1458325071E-12   -0.1875889563E-12

  +-------------------------------------------------------------------+
  |              Analytical stress tensor - Symmetrized               |
  |                  Cartesian components [eV/A**3]                   |
  +-------------------------------------------------------------------+
  |                x                y                z                |
  |                                                                   |
  |  x        -0.04251940       0.00000000      -0.00000000           |
  |  y         0.00000000      -0.04251940      -0.00000000           |
  |  z        -0.00000000      -0.00000000      -0.04251940           |
  |                                                                   |
  |  Pressure:       0.04251940   [eV/A**3]                           |
  |                                                                   |
  +-------------------------------------------------------------------+


  Self-consistency convergence accuracy:
  | Change of charge density      :  0.1573E-10
  | Change of sum of eigenvalues  :  0.6286E-08 eV
  | Change of total energy        : -0.2475E-10 eV
  | Change of forces              :  0.7608E-13 eV/A

  Writing Kohn-Sham eigenvalues.
  K-point:       1 at    0.000000    0.000000    0.000000 (in units of recip. lattice)

  State    Occupation    Eigenvalue [Ha]    Eigenvalue [eV]
      1       2.00000         -65.491030        -1782.10159
      2       2.00000         -65.491030        -1782.10159
      3       2.00000         -65.491030        -1782.10159
      4       2.00000         -65.491030        -1782.10159
      5       2.00000         -65.491030        -1782.10159
      6       2.00000         -65.491030        -1782.10159
      7       2.00000         -65.491030        -1782.10159
      8       2.00000         -65.491030        -1782.10159
      9       2.00000          -5.139511         -139.85321
     10       2.00000          -5.139366         -139.84927
     11       2.00000          -5.139366         -139.84927
     12       2.00000          -5.139366         -139.84927
     13       2.00000          -5.139366         -139.84927
     14       2.00000          -5.139366         -139.84927
     15       2.00000          -5.139366         -139.84927
     16       2.00000          -5.139221         -139.84533
     17       2.00000          -3.552499          -96.66841
     18       2.00000          -3.552499          -96.66841
     19       2.00000          -3.552499          -96.66841
     20       2.00000          -3.552499          -96.66841
     21       2.00000          -3.552499          -96.66841
     22       2.00000          -3.552499          -96.66841
     23       2.00000          -3.552411          -96.66601
     24       2.00000          -3.552411          -96.66601
     25       2.00000          -3.552411          -96.66601
     26       2.00000          -3.552106          -96.65772
     27       2.00000          -3.552106          -96.65772
     28       2.00000          -3.552106          -96.65772
     29       2.00000          -3.552106          -96.65772
     30       2.00000          -3.552106          -96.65772
     31       2.00000          -3.552106          -96.65772
     32       2.00000          -3.551799          -96.64938
     33       2.00000          -3.551799          -96.64938
     34       2.00000          -3.551799          -96.64938
     35       2.00000          -3.551712          -96.64701
     36       2.00000          -3.551712          -96.64701
     37       2.00000          -3.551712          -96.64701
     38       2.00000          -3.551712          -96.64701
     39       2.00000          -3.551712          -96.64701
     40       2.00000          -3.551712          -96.64701
     41       2.00000          -0.652075          -17.74387
     42       2.00000          -0.499057          -13.58004
     43       2.00000          -0.499057          -13.58004
     44       2.00000          -0.499057          -13.58004
     45       2.00000          -0.499057          -13.58004
     46       2.00000          -0.499057          -13.58004
     47       2.00000          -0.499057          -13.58004
     48       2.00000          -0.318358           -8.66297
     49       2.00000          -0.318358           -8.66297
     50       2.00000          -0.318358           -8.66297
     51       2.00000          -0.318358           -8.66297
     52       2.00000          -0.318358           -8.66297
     53       2.00000          -0.318358           -8.66297
     54       2.00000          -0.206806           -5.62748
     55       2.00000          -0.206806           -5.62748
     56       2.00000          -0.206806           -5.62748
     57       0.00000          -0.105162           -2.86160
     58       0.00000          -0.105162           -2.86160
     59       0.00000          -0.105162           -2.86160
     60       0.00000          -0.105162           -2.86160
     61       0.00000          -0.105162           -2.86160
     62       0.00000          -0.105162           -2.86160
     63       0.00000          -0.096996           -2.63939
     64       0.00000          -0.093083           -2.53293
     65       0.00000          -0.093083           -2.53293
     66       0.00000          -0.093083           -2.53293
     67       0.00000           0.192507            5.23838
     68       0.00000           0.192507            5.23838
     69       0.00000           0.192507            5.23838
     70       0.00000           0.192507            5.23838
     71       0.00000           0.192507            5.23838
     72       0.00000           0.192507            5.23838

  What follows are estimated values for band gap, HOMO, LUMO, etc.
  | They are estimated on a discrete k-point grid and not necessarily exact.
  | For converged numbers, create a DOS and/or band structure plot on a denser k-grid.

  Highest occupied state (VBM) at     -5.62748106 eV (relative to internal zero)
  | Occupation number:      2.00000000
  | K-point:       1 at    0.000000    0.000000    0.000000 (in units of recip. lattice)

  Lowest unoccupied state (CBM) at    -3.48263198 eV (relative to internal zero)
  | Occupation number:      0.00000000
  | K-point:       4 at    0.000000    0.000000    0.750000 (in units of recip. lattice)

  ESTIMATED overall HOMO-LUMO gap:      2.14484908 eV between HOMO at k-point 1 and LUMO at k-point 4
  | This appears to be an indirect band gap.
  | Smallest direct gap :      2.76587653 eV for k_point 1 at    0.000000    0.000000    0.750000 (in units of recip. lattice)
  The gap value is above 0.2 eV. Unless you are using a very sparse k-point grid,
  this system is most likely an insulator or a semiconductor.

  Self-consistency cycle converged.

  End self-consistency iteration #    13       :  max(cpu_time)    wall_clock(cpu1)
  | Time for this iteration                    :        1.748 s           1.763 s
  | Charge density & force component update    :        0.398 s           0.399 s
  | Density mixing                             :        0.012 s           0.012 s
  | Hartree multipole update                   :        0.022 s           0.023 s
  | Hartree multipole summation                :        0.565 s           0.566 s
  | Integration                                :        0.562 s           0.563 s
  | Solution of K.-S. eqns.                    :        0.183 s           0.184 s
  | Total energy evaluation                    :        0.003 s           0.008 s

  Partial memory accounting:
  | Current value for overall tracked memory usage:
  |   Minimum:        5.562 MB (on task 0)
  |   Maximum:        5.562 MB (on task 0)
  |   Average:        5.562 MB
  | Peak value for overall tracked memory usage:
  |   Minimum:       13.602 MB (on task 0 after allocating d_wave)
  |   Maximum:       13.602 MB (on task 0 after allocating d_wave)
  |   Average:       13.602 MB
  | Largest tracked array allocation so far:
  |   Minimum:        5.062 MB (KS_eigenvector_complex on task 0)
  |   Maximum:        5.062 MB (KS_eigenvector_complex on task 0)
  |   Average:        5.062 MB
  Note:  These values currently only include a subset of arrays which are explicitly tracked.
  The "true" memory usage will be greater.
------------------------------------------------------------
  Removing unitary transformations (pure translations, rotations) from forces on atoms.
  Atomic forces before filtering:
  | Net force on center of mass :  -0.174207E-10 -0.763436E-11  0.561361E-11 eV/A
  Atomic forces after filtering:
  | Net force on center of mass :   0.000000E+00  0.000000E+00  0.000000E+00 eV/A

  Energy and forces in a compact form:
  | Total energy uncorrected      :         -0.629940004956905E+05 eV
  | Total energy corrected        :         -0.629940004956905E+05 eV  <-- do not rely on this value for anything but (periodic) metals
  | Electronic free energy        :         -0.629940004956905E+05 eV
  Total atomic forces (unitary forces cleaned) [eV/Ang]:
  |    1          0.211559373697667E-11         -0.690831565554336E-11          0.109108820789298E-11
  |    2         -0.110200106365478E-10          0.104571755297025E-10          0.559712560259847E-11
  |    3         -0.220625292515341E-12         -0.171675941289277E-10         -0.552684087334072E-11
  |    4          0.362017029343251E-11         -0.534187467481782E-12          0.443176600575190E-12
  |    5          0.276845742138423E-11          0.162338438992385E-10         -0.429607031262310E-11
  |    6          0.367754893091109E-11         -0.526518438007151E-12          0.426337206594053E-12
  |    7         -0.468225189490397E-11         -0.109091102951502E-11          0.183670284080954E-11
  |    8          0.374111744126257E-11         -0.463492709465930E-12          0.428480727493593E-12

  ------------------------------------ 
  Start decomposition of the XC Energy 
  ------------------------------------ 
  X and C from original XC functional choice 
  Hartree-Fock Energy :          0.000000000 Ha              0.000000000 eV
  X Energy            :       -161.766105016 Ha          -4401.879682651 eV
  C Energy            :         -4.402657437 Ha           -119.802404335 eV
  Total XC Energy     :       -166.168762453 Ha          -4521.682086986 eV
  ------------------------------------ 
  LDA X and C from self-consistent density 
  X Energy LDA        :       -149.680572366 Ha          -4073.015606821 eV
  C Energy LDA        :         -8.555467798 Ha           -232.806123841 eV
  ------------------------------------ 
  End decomposition of the XC Energy 
  ------------------------------------ 

------------------------------------------------------------

------------------------------------------------------------------------------
  Final output of selected total energy values:

  The following output summarizes some interesting total energy values
  at the end of a run (AFTER all relaxation, molecular dynamics, etc.).

  | Total energy of the DFT / Hartree-Fock s.c.f. calculation      :         -62994.000495691 eV
  | Final zero-broadening corrected energy (caution - metals only) :         -62994.000495691 eV
  | For reference only, the value of 1 Hartree used in FHI-aims is :             27.211384500 eV
  | For reference only, the overall average (free atom contribution
  | + realspace contribution) of the electrostatic potential after
  | s.c.f. convergence is                                          :            -13.813354153 eV

  Before relying on these values, please be sure to understand exactly which
  total energy value is referred to by a given number. Different objects may
  all carry the same name 'total energy'. Definitions:

  Total energy of the DFT / Hartree-Fock s.c.f. calculation:
  | Note that this energy does not include ANY quantities calculated after the
  | s.c.f. cycle, in particular not ANY RPA, MP2, etc. many-body perturbation terms.

  Final zero-broadening corrected energy:
  | For metallic systems only, a broadening of the occupation numbers at the Fermi
  | level can be extrapolated back to zero broadening by an electron-gas inspired
  | formula. For all systems that are not real metals, this value can be
  | meaningless and should be avoided.

------------------------------------------------------------------------------
  Methods described in the following list of references were used in this FHI-aims run.
  If you publish the results, please make sure to cite these reference if they apply.
  FHI-aims is an academic code, and for our developers (often, Ph.D. students
  and postdocs), scientific credit in the community is essential.
  Thank you for helping us!

  For any use of FHI-aims, please cite:

    Volker Blum, Ralf Gehrke, Felix Hanke, Paula Havu, Ville Havu,
    Xinguo Ren, Karsten Reuter, and Matthias Scheffler
    'Ab initio molecular simulations with numeric atom-centered orbitals'
    Computer Physics Communications 180, 2175-2196 (2009)
    http://dx.doi.org/10.1016/j.cpc.2009.06.022


  For the analytical stress tensor used in your run, please cite:

    Franz Knuth, Christian Carbogno, Viktor Atalla, Volker Blum, Matthias Scheffler
    'All-electron formalism for total energy strain derivatives and
    stress tensor components for numeric atom-centered orbitals'
    Computer Physics Communications 190, 33-50 (2015).
    http://dx.doi.org/10.1016/j.cpc.2015.01.003


  The ELSI infrastructure was used in your run to solve the Kohn-Sham electronic structure.
  Please check out http://elsi-interchange.org to learn more.
  If scalability is important for your project, please acknowledge ELSI by citing:

    V. W-z. Yu, F. Corsetti, A. Garcia, W. P. Huhn, M. Jacquelin, W. Jia,
    B. Lange, L. Lin, J. Lu, W. Mi, A. Seifitokaldani, A. Vazquez-Mayagoitia,
    C. Yang, H. Yang, and V. Blum
    'ELSI: A unified software interface for Kohn-Sham electronic structure solvers'
    Computer Physics Communications 222, 267-285 (2018).
    http://dx.doi.org/10.1016/j.cpc.2017.09.007


  For the real-space grid partitioning and parallelization used in this calculation, please cite:

    Ville Havu, Volker Blum, Paula Havu, and Matthias Scheffler,
    'Efficient O(N) integration for all-electron electronic structure calculation'
    'using numerically tabulated basis functions'
    Journal of Computational Physics 228, 8367-8379 (2009).
    http://dx.doi.org/10.1016/j.jcp.2009.08.008

  Of course, there are many other important community references, e.g., those cited in the
  above references. Our list is limited to references that describe implementations in the
  FHI-aims code. The reason is purely practical (length of this list) - please credit others as well.

 * A warning was issued further up regarding the accuracy of onsite integrals.
   An integral with a negative eigenvalue was among the flagged integrals.
   In most standard situations, this warning is probably harmless.
   If needed, this can be verified by adjusting the radial_multiplier flag.

------------------------------------------------------------
          Leaving FHI-aims.
          Date     :  20191125, Time     :  143120.032

          Computational steps:
          | Number of self-consistency cycles          :           13
          | Number of SCF (re)initializations          :            1

          Detailed time accounting                     :  max(cpu_time)    wall_clock(cpu1)
          | Total time                                 :       18.852 s          19.120 s
          | Preparation time                           :        0.218 s           0.222 s
          | Boundary condition initalization           :        0.528 s           0.531 s
          | Grid partitioning                          :        0.135 s           0.136 s
          | Preloading free-atom quantities on grid    :        0.001 s           0.001 s
          | Free-atom superposition energy             :        0.129 s           0.129 s
          | Total time for integrations                :        8.227 s           8.241 s
          | Total time for solution of K.-S. equations :        2.608 s           2.692 s
          | Total time for density & force components  :        1.084 s           1.092 s
          | Total time for mixing                      :        0.113 s           0.116 s
          | Total time for Hartree multipole update    :        0.289 s           0.299 s
          | Total time for Hartree multipole sum       :        3.520 s           3.531 s
          | Total time for total energy evaluation     :        0.014 s           0.038 s

          Partial memory accounting:
          | Residual value for overall tracked memory usage across tasks:     0.000000 MB (should be 0.000000 MB)
          | Peak values for overall tracked memory usage:
          |   Minimum:       13.602 MB (on task 0 after allocating d_wave)
          |   Maximum:       13.602 MB (on task 0 after allocating d_wave)
          |   Average:       13.602 MB
          | Largest tracked array allocation:
          |   Minimum:        5.062 MB (KS_eigenvector_complex on task 0)
          |   Maximum:        5.062 MB (KS_eigenvector_complex on task 0)
          |   Average:        5.062 MB
          Note:  These values currently only include a subset of arrays which are explicitly tracked.
          The "true" memory usage will be greater.

          Have a nice day.
------------------------------------------------------------
