  MPI-parallelism will be employed.
------------------------------------------------------------
          Invoking FHI-aims ...

          When using FHI-aims, please cite the following reference:

          Volker Blum, Ralf Gehrke, Felix Hanke, Paula Havu,
          Ville Havu, Xinguo Ren, Karsten Reuter, and Matthias Scheffler,
          'Ab Initio Molecular Simulations with Numeric Atom-Centered Orbitals',
          Computer Physics Communications 180, 2175-2196 (2009)

          For any questions about FHI-aims, please visit the aimsclub website
          with its forums and wiki. Contributions to both the forums and the
          wiki are warmly encouraged - they are for you, and everyone is welcome there.

------------------------------------------------------------



  Date     :  20191025, Time     :  162945.812
  Time zero on CPU 1             :   0.103721000000000E+00  s.
  Internal wall clock time zero  :           341252985.812  s.

  FHI-aims created a unique identifier for this run for later identification
  aims_uuid : E9E7965F-2630-42F1-A196-61DCCF68175E

  Build configuration of the current instance of FHI-aims
  -------------------------------------------------------
  FHI-aims version      : 191023
  Commit number         : cdb1c082e
  CMake host system     : Linux-2.6.32-431.3.1.el6.x86_64
  CMake version         : 3.11.1
  Fortran compiler      : /opt/intel/impi/2018.2.199/bin64/mpiifort (Intel) version 18.0.2.20180210
  Fortran compiler flags: -O3 -ip -fp-model precise
  C compiler            : /opt/intel/impi/2018.2.199/bin64/mpiicc (Intel) version 18.0.2.20180210
  C compiler flags      : -O3 -fp-model precise -O3 -DNDEBUG
  Architecture          :
  Using MPI
  Using Scalapack
  Using C files
  Using LibXC
  Using SPGlib
  Using i-PI
  Linking against: /opt/intel/mkl/lib/intel64/libmkl_intel_lp64.so
                   /opt/intel/mkl/lib/intel64/libmkl_sequential.so
                   /opt/intel/mkl/lib/intel64/libmkl_core.so
                   /opt/intel/mkl/lib/intel64/libmkl_blacs_intelmpi_lp64.so
                   /opt/intel/mkl/lib/intel64/libmkl_scalapack_lp64.so

  Using       20 parallel tasks.
  Task        0 on host node18.timewarp reporting.
  Task        1 on host node18.timewarp reporting.
  Task        2 on host node18.timewarp reporting.
  Task        3 on host node18.timewarp reporting.
  Task        4 on host node18.timewarp reporting.
  Task        5 on host node18.timewarp reporting.
  Task        6 on host node18.timewarp reporting.
  Task        7 on host node18.timewarp reporting.
  Task        8 on host node18.timewarp reporting.
  Task        9 on host node18.timewarp reporting.
  Task       10 on host node18.timewarp reporting.
  Task       11 on host node18.timewarp reporting.
  Task       12 on host node18.timewarp reporting.
  Task       13 on host node18.timewarp reporting.
  Task       14 on host node18.timewarp reporting.
  Task       15 on host node18.timewarp reporting.
  Task       16 on host node18.timewarp reporting.
  Task       17 on host node18.timewarp reporting.
  Task       18 on host node18.timewarp reporting.
  Task       19 on host node18.timewarp reporting.

  Performing system and environment tests:
  | Environment variable OMP_NUM_THREADS correctly set to 1.
  | Maximum stacksize for task 0: unlimited
  | Maximum stacksize for task 1: unlimited
  | Maximum stacksize for task 2: unlimited
  | Maximum stacksize for task 3: unlimited
  | Maximum stacksize for task 4: unlimited
  | Maximum stacksize for task 5: unlimited
  | Maximum stacksize for task 6: unlimited
  | Maximum stacksize for task 7: unlimited
  | Maximum stacksize for task 8: unlimited
  | Maximum stacksize for task 9: unlimited
  | Maximum stacksize for task 10: unlimited
  | Maximum stacksize for task 11: unlimited
  | Maximum stacksize for task 12: unlimited
  | Maximum stacksize for task 13: unlimited
  | Maximum stacksize for task 14: unlimited
  | Maximum stacksize for task 15: unlimited
  | Maximum stacksize for task 16: unlimited
  | Maximum stacksize for task 17: unlimited
  | Maximum stacksize for task 18: unlimited
  | Maximum stacksize for task 19: unlimited
  | Current stacksize for task 0: unlimited
  | Current stacksize for task 1: unlimited
  | Current stacksize for task 2: unlimited
  | Current stacksize for task 3: unlimited
  | Current stacksize for task 4: unlimited
  | Current stacksize for task 5: unlimited
  | Current stacksize for task 6: unlimited
  | Current stacksize for task 7: unlimited
  | Current stacksize for task 8: unlimited
  | Current stacksize for task 9: unlimited
  | Current stacksize for task 10: unlimited
  | Current stacksize for task 11: unlimited
  | Current stacksize for task 12: unlimited
  | Current stacksize for task 13: unlimited
  | Current stacksize for task 14: unlimited
  | Current stacksize for task 15: unlimited
  | Current stacksize for task 16: unlimited
  | Current stacksize for task 17: unlimited
  | Current stacksize for task 18: unlimited
  | Current stacksize for task 19: unlimited
  | Checking for scalapack...
  | Testing pdtran()...
  | All pdtran() tests passed.

  Obtaining array dimensions for all initial allocations:
  
  -----------------------------------------------------------------------
  Parsing control.in (first pass over file, find array dimensions only).
  The contents of control.in will be repeated verbatim below
  unless switched off by setting 'verbatim_writeout .false.' .
  in the first line of control.in .
  -----------------------------------------------------------------------
  
  #  Physical model
    xc                 pbe
    spin               collinear
    relativistic       4c_dks
  # relativistic       x2c
  # relativistic       atomic_zora scalar
  # atomic_solver      atom_sphere
  # finite_nuclear_radius 1.d-3
  # output memory_tracking
  # sc_iter_limit 1
    KS_method serial
  
    k_grid  3 2 1
  
  ################################################################################
  #
  #  FHI-aims code project
  #  VB, Fritz-Haber Institut, 2007
  #
  #  Suggested "safe" defaults for Ar atom (to be pasted into control.in file)
  #
  ################################################################################
    species        Ar
  #     global species definitions
      nucleus             18
      mass                39.948
  #
      l_hartree           4
  #
      cut_pot             3.5          1.5  1.0
      basis_dep_cutoff    1e-14
  #
      radial_base         46  5.0
      radial_multiplier   1
      angular_grids       specified
      # division   0.5855  110
      # division   0.8590  194
      # division   0.9692  302
      # outer_grid  302
        division   0.5855  50
        division   0.8590  50
        division   0.9692  50
        outer_grid  86
  ################################################################################
  #
  #  Definition of "minimal" basis
  #
  ################################################################################
  #     valence basis states
      valence      3  s   2.
      valence      3  p   6.
  #     ion occupancy
      ion_occ      3  s   1.
      ion_occ      3  p   5.
  ################################################################################
    # include_min_basis .false.
  #
  #  Suggested additional basis functions. For production calculations,
  #  uncomment them one after another (the most important basis functions are
  #  listed first).
  #
  #  Constructed for dimers: 2.25 A, 2.625 A, 3.0 A, 3.375 A, 4.0 A
  #
  #  Noble gas symmetric dimers converge quickly in DFT. If you find that
  #  you require a larger basis than tier 3, please contact us - VB, FHI.
  #
  ################################################################################
  #  "First tier" - improvements: -57.34 meV to -1.14 meV
  #    ionic 3 d auto
       ionic 4 p auto
  #    hydro 4 f 7.4
       hydro 3 s 4.5
  #  "Second tier" - improvements: -0.67 meV to -0.10 meV
  #     hydro 4 d 7.8
  #     hydro 5 g 10.4
  #     ionic 3 p auto
  #     hydro 1 s 15.2
  #  "Third tier" - improvements: -0.13 meV to -0.02 meV
  #     hydro 4 d 5.8
  #     hydro 5 f 9.2
  #     hydro 4 s 11.2
  #     hydro 5 p 10.8
      # sto 1 0  17.4
      # sto 2 0  6.74
      # sto 3 0  2.33
      # sto 2 1  6.74
      # sto 3 1  2.33
  
  -----------------------------------------------------------------------
  Completed first pass over input file control.in .
  -----------------------------------------------------------------------
  
  
  -----------------------------------------------------------------------
  Parsing geometry.in (first pass over file, find array dimensions only).
  The contents of geometry.in will be repeated verbatim below
  unless switched off by setting 'verbatim_writeout .false.' .
  in the first line of geometry.in .
  -----------------------------------------------------------------------
  
   lattice_vector     4.00    4.00    0.00
   lattice_vector     0.00    4.00    4.00
   lattice_vector     4.00    0.00    4.00
  
   atom_frac          0.0    0.0    0.0   Ar
   atom_frac          0.5    0.5    0.5   Ar
  
  
  -----------------------------------------------------------------------
  Completed first pass over input file geometry.in .
  -----------------------------------------------------------------------
  

  Basic array size parameters:
  | Number of species                 :        1
  | Number of atoms                   :        2
  | Number of lattice vectors         :        3
  | Max. basis fn. angular momentum   :        1
  | Max. atomic/ionic basis occupied n:        3
  | Max. number of basis fn. types    :        3
  | Max. radial fns per species/type  :        7
  | Max. logarithmic grid size        :     1367
  | Max. radial integration grid size :       46
  | Max. angular integration grid size:       86
  | Max. angular grid division number :        8
  | Radial grid for Hartree potential :     1367
  | Number of spin channels           :        2

------------------------------------------------------------
          Reading file control.in.
------------------------------------------------------------
  XC: Using PBE gradient-corrected functionals.
  Spin treatment: Spin density functional theory - collinear spins.
  Relativistic treatment of kinetic energy: four-component DKS.
  Kohn-Sham eigenvalues and eigenfunctions calculated by LAPACK via ELSI.
  Found k-point grid:         3         2         1
 
  Reading configuration options for species Ar                  .
  | Found nuclear charge :  18.0000
  | Found atomic mass :    39.9480000000000      amu
  | Found l_max for Hartree potential  :   4
  | Found cutoff potl. onset [A], width [A], scale factor :    3.50000    1.50000    1.00000
  | Threshold for basis-dependent cutoff potential is   0.100000E-13
  | Found data for basic radial integration grid :    46 points, outermost radius =    5.000 A
  | Found multiplier for basic radial grid :   1
  | Found angular grid specification: user-specified.
  | Specified grid contains     4 separate shells.
  | Check grid settings after all constraints further below.
  | Found free-atom valence shell :  3 s   2.000
  | Found free-atom valence shell :  3 p   6.000
  | Found free-ion valence shell :  3 s   1.000
  | Found free-ion valence shell :  3 p   5.000
  | Found ionic basis function :  4 p , default cutoff radius.
  | Found hydrogenic basis function :  3 s   4.500
  Species Ar                  : Missing cutoff potential type.
  Defaulting to exp(1/x)/(1-x)^2 type cutoff potential.
  Species Ar: No 'logarithmic' tag. Using default grid for free atom:
  | Default logarithmic grid data [bohr] : 0.1000E-03 0.1000E+03 0.1012E+01
  | Will include ionic basis functions of  2.0-fold positive Ar                   ion.
  Species Ar: On-site basis accuracy parameter (for Gram-Schmidt orthonormalisation) not specified.
  Using default value basis_acc =  0.1000000E-03.
  Species Ar                  : Using default innermost maximum threshold i_radial=  2 for radial functions.
  Species Ar                  : Default cutoff onset for free atom density etc. : 0.35000000E+01 AA.
  Species Ar                  : Basic radial grid will be enhanced according to radial_multiplier =   1, to contain    46 grid points.
 
  Finished reading input file 'control.in'. Consistency checks are next.
 
  MPI_IN_PLACE appears to work with this MPI implementation.
  | Keeping use_mpi_in_place .true. (see manual).
  Target number of points in a grid batch is not set. Defaulting to  100
  Method for grid partitioning is not set. Defaulting to parallel hash+maxmin partitioning.
  Batch size limit is not set. Defaulting to    200
  By default, will store active basis functions for each batch.
  If in need of memory, prune_basis_once .false. can be used to disable this option.
  communication_type for Hartree potential was not specified.
  Defaulting to calc_hartree .
  Defaulting to Pulay charge density mixer.
  Pulay mixer: Number of relevant iterations not set.
  Defaulting to    8 iterations.
  Pulay mixer: Number of initial linear mixing iterations not set.
  Defaulting to    0 iterations.
  Work space size for distributed Hartree potential not set.
  Defaulting to   0.200000E+03 MB.
  Mixing parameter for charge density mixing has not been set.
  Using default: charge_mix_param =     0.0500.
  The mixing parameter will be adjusted in iteration number     2 of the first full s.c.f. cycle only.
  Mixing parameter for spin density mixing has not been set.
  Using charge_mix_param as default:     0.0500.
  Algorithm-dependent basis array size parameters:
  | n_max_pulay                         :        8
 * Notice: The s.c.f. convergence criterion sc_accuracy_rho was not provided.
 * We used to stop in this case, and ask the user to provide reasonable
 * scf convergence criteria. However, this led some users to employ criteria
 * that led to extremely long run times, e.g., for simple relaxation.
 * We now preset a default value for sc_accuracy_rho if it is not set.
 * You may still wish to check if this setting is too tight or too loose for your needs.
 * Based on n_atoms, FHI-aims chose sc_accuracy_rho =  0.100000E-05 .
  Maximum number of self-consistency iterations not provided.
  Presetting  1000 iterations.
  Presetting      1001 iterations before the initial mixing cycle
  is restarted anyway using the sc_init_iter criterion / keyword.
  Presetting a factor      1.000 between actual scf density residual
  and density convergence criterion sc_accuracy_rho below which sc_init_iter
  takes no effect.
 * No s.c.f. convergence criteria (sc_accuracy_*) were provided in control.in.
 * The run will proceed with a reasonable default guess, but please check whether.
 * the s.c.f. cycles seem to take too much or too little time.
  Calculation of forces was not defined in control.in. No forces will be calculated.
  Geometry relaxation not requested: no relaxation will be performed.
  No accuracy limit for integral partition fn. given. Defaulting to  0.1000E-14.
  No threshold value for u(r) in integrations given. Defaulting to  0.1000E-05.
  No occupation type (smearing scheme) given. Defaulting to Gaussian broadening, width =  0.1000E-01 eV.
  The width will be adjusted in iteration number     2 of the first full s.c.f. cycle only.
  S.C.F. convergence parameters will be adjusted in iteration number     2 of the first full s.c.f. cycle only.
  No accuracy for occupation numbers given. Defaulting to  0.1000E-12.
  No threshold value for occupation numbers given. Defaulting to  0.0000E+00.
  No accuracy for fermi level given. Defaulting to  0.1000E-19.
  Maximum # of iterations to find E_F not set. Defaulting to  200.
  Will not use alltoall communication since running on < 1024 CPUs.
  Threshold for basis singularities not set.
  Default threshold for basis singularities:  0.1000E-04
  partition_type (choice of integration weights) for integrals was not specified.
  | Using a version of the partition function of Stratmann and coworkers ('stratmann_sparse').
  | At each grid point, the set of atoms used to build the partition table is smoothly restricted to
  | only those atoms whose free-atom density would be non-zero at that grid point.
  Partitioning for Hartree potential was not defined. Using partition_type for integrals.
  | Adjusted default value of keyword multip_moments_threshold to:       0.10000000E-11
  | This value may affect high angular momentum components of the Hartree potential in periodic systems.
  Angular momentum expansion for Kerker preconditioner not set explicitly.
  | Using default value of   0
  No explicit requirement for turning off preconditioner.
  | By default, it will be turned off when the charge convergence reaches
  | sc_accuracy_rho  =   0.100000E-05
  No special mixing parameter while Kerker preconditioner is on.
  Using default: charge_mix_param =     0.0500.
  No q(lm)/r^(l+1) cutoff set for long-range Hartree potential.
  | Using default value of  0.100000E-09 .
  | Verify using the multipole_threshold keyword.
  Defaulting to new monopole extrapolation.
  Density update method: automatic selection selected.
  Using density matrix based charge density update.
  Using density matrix based charge density update.
  Using packed matrix style: index .
  Defaulting to use time-reversal symmetry for k-point grid.
  Charge integration errors on the 3D integration grid will be compensated
  by explicit normalization and distribution of residual charges.
  Use the "compensate_multipole_errors" flag to change this behaviour.
------------------------------------------------------------


------------------------------------------------------------
          Reading geometry description geometry.in.
------------------------------------------------------------
  Input structure read successfully.
  The structure contains        2 atoms,  and a total of         36.000 electrons.

  Input geometry:
  | Unit cell:
  |        4.00000000        4.00000000        0.00000000
  |        0.00000000        4.00000000        4.00000000
  |        4.00000000        0.00000000        4.00000000
  | Atomic structure:
  |       Atom                x [A]            y [A]            z [A]
  |    1: Species Ar            0.00000000        0.00000000        0.00000000
  |    2: Species Ar            4.00000000        4.00000000        4.00000000

  Lattice parameters for 3D lattice (in Angstroms) :     5.656854    5.656854    5.656854
  Angle(s) between unit vectors (in degrees)       :    60.000000   60.000000   60.000000

  | The smallest distance between any two atoms is         4.00000000 AA.
  | The first atom of this pair is atom number                      1 .
  | The second atom of this pair is atom number                     2 .
  | Wigner-Seitz cell of the first atom image           1     0     0 .
  | (The Wigner-Seitz cell of the second atom is 0 0 0  by definition.)

  Symmetry information by spglib:
  | Precision set to  0.1E-04
  | Number of Operations  : 96
  | Space group           : 221
  | International         : Pm-3m
  | Schoenflies           : Oh^1

  Quantities derived from the lattice vectors:
  | Reciprocal lattice vector 1:  0.785398  0.785398 -0.785398
  | Reciprocal lattice vector 2: -0.785398  0.785398  0.785398
  | Reciprocal lattice vector 3:  0.785398 -0.785398  0.785398
  | Unit cell volume                               :   0.128000E+03  A^3

  Range separation radius for Ewald summation (hartree_convergence_parameter):      5.00000000 bohr.

  Fractional coordinates:
                         L1                L2                L3
       atom_frac         0.00000000        0.00000000        0.00000000  Ar
       atom_frac         0.50000000        0.50000000        0.50000000  Ar

  Initial moments and charges:
  |  Atom   Moment         Charge        Species
  |     1  (Hund's rule)   0.000000E+00   Ar
  |     2  (Hund's rule)   0.000000E+00   Ar

  Number of empty states per atom not set in control.in - providing a guess from actual geometry.
  | Total number of empty states used during s.c.f. cycle:        6
  If you use a very high smearing, use empty_states (per atom!) in control.in to increase this value.

  Structure-dependent array size parameters: 
  | Number of distinct atom types in initial rho :        1
  | Maximum number of distinct radial functions  :       10
  | Maximum number of basis functions            :       44
  | Number of Kohn-Sham states (occupied + empty):       48
------------------------------------------------------------

------------------------------------------------------------
          Preparing all fixed parts of the calculation.
------------------------------------------------------------
  Determining machine precision:
    2.225073858507201E-308
  Setting up grids for atomic and cluster calculations.

  Creating wave function, potential, and density for free atoms.

  Species: Ar
  Use dftatom to solve the Dirac equation of the free atoms
  cut_atom:   F
  Convergence of radial Dirac equation:  0.680457E+02
  Convergence of radial Dirac equation:  0.196635E+02
  Convergence of radial Dirac equation:  0.129139E+02
  Convergence of radial Dirac equation:  0.366585E+01
  Convergence of radial Dirac equation:  0.551145E+00
  Convergence of radial Dirac equation:  0.360631E+00
  Convergence of radial Dirac equation:  0.599557E-01
  Convergence of radial Dirac equation:  0.121074E-01
  Convergence of radial Dirac equation:  0.344444E-02
  Convergence of radial Dirac equation:  0.683485E-03
  Convergence of radial Dirac equation:  0.481535E-03
  Convergence of radial Dirac equation:  0.594748E-04
  Convergence of radial Dirac equation:  0.490628E-04
  Convergence of radial Dirac equation:  0.118021E-05
  Convergence of radial Dirac equation:  0.101642E-05
  Convergence of radial Dirac equation:  0.235570E-06

  List of occupied orbitals and eigenvalues:
    n    l    k              occ      energy [Ha]    energy [eV]
    1    0   -1           2.0000      -114.657462     -3119.9883
    2    0   -1           2.0000       -10.912532      -296.9451
    3    0   -1           2.0000        -0.892454       -24.2849
    2    1    1           2.0000        -8.501208      -231.3297
    2    1   -2           4.0000        -8.419100      -229.0954
    3    1    1           2.0000        -0.381686       -10.3862
    3    1   -2           4.0000        -0.375232       -10.2106

  Creating fixed part of basis set: Ionic, confined, hydrogenic.
 
  Ar                   ion:
  Use dftatom to solve the Dirac equation of the free atoms
  cut_atom:   F
  Convergence of radial Dirac equation:  0.680457E+02
  Convergence of radial Dirac equation:  0.182819E+02
  Convergence of radial Dirac equation:  0.127702E+02
  Convergence of radial Dirac equation:  0.211019E+01
  Convergence of radial Dirac equation:  0.286950E+00
  Convergence of radial Dirac equation:  0.107809E+00
  Convergence of radial Dirac equation:  0.320303E-01
  Convergence of radial Dirac equation:  0.110944E-01
  Convergence of radial Dirac equation:  0.197433E-02
  Convergence of radial Dirac equation:  0.804331E-03
  Convergence of radial Dirac equation:  0.131487E-03
  Convergence of radial Dirac equation:  0.636810E-04
  Convergence of radial Dirac equation:  0.172428E-04
  Convergence of radial Dirac equation:  0.427531E-05
  Convergence of radial Dirac equation:  0.699317E-06

  List of free ionic orbitals and eigenvalues:
    n    l    k      energy [Ha]    energy [eV]
    1    0   -1      -115.833386     -3151.9868
    2    0   -1       -12.058251      -328.1217
    3    0   -1        -1.878945       -51.1287
    2    1    1        -9.649723      -262.5823
    2    1   -2        -9.567411      -260.3425
    3    1    1        -1.326577       -36.0980
    3    1   -2        -1.318286       -35.8724


  List of ionic basis orbitals and eigenvalues:
    n    l    k      energy [Ha]    energy [eV]    outer radius [A]
    4    1    1        -0.358514        -9.7557       4.615463
    4    1   -2        -0.357034        -9.7154       4.615463

 
  Ar                   hydrogenic:
 
  List of Dirac hydrogenic (upper component) basis orbitals: 
    n    l    k      effective z      eigenvalue [eV]  inner max. [A]     outer max. [A]     outer radius [A]
    3    0   -1         4.500000       -30.6112           0.086838           1.535972           4.559383
 

  Adding cutoff potential to free-atom effective potential.
  Creating atomic-like basis functions for current effective potential.

  Species Ar                  :

  List of atomic basis orbitals and eigenvalues:
    n    l    k      energy [Ha]    energy [eV]    outer radius [A]
    1    0   -1      -114.657462     -3119.9883       0.606570
    2    0   -1       -10.912532      -296.9451       1.961409
    3    0   -1        -0.892454       -24.2849       4.395197
    2    1    1        -8.501208      -231.3296       2.136648
    2    1   -2        -8.419099      -229.0954       2.136648
    3    1    1        -0.381659       -10.3855       4.503983
    3    1   -2        -0.375202       -10.2098       4.503983

  dim_matrix_rel=:        26
  Assembling full basis from fixed parts.
  | Species Ar :   atomic orbital   1 s accepted.
  | Species Ar :   atomic orbital   2 s accepted.
  | Species Ar :   atomic orbital   3 s accepted.
  | Species Ar :    hydro orbital   3 s accepted.
  | Species Ar :   atomic orbital   2 p accepted.
  | Species Ar :   atomic orbital   2 p accepted.
  | Species Ar :   atomic orbital   3 p accepted.
  | Species Ar :   atomic orbital   3 p accepted.
  | Species Ar :    ionic orbital   4 p accepted.
  | Species Ar :    ionic orbital   4 p accepted.
  Reducing total number of  Kohn-Sham states to       44.
 
  Basis size parameters after reduction:
  | Total number of radial functions:       10
  | Total number of scalar large component basis functions :       44
  | Total number of scalar small component basis functions :       60
 
  Per-task memory consumption for arrays in subroutine allocate_ext:
  |           2.626152MB.
  Testing on-site integration grid accuracy.
  |  Species  Function  <phi|h_atom|phi> (log., in eV)  <phi|h_atom|phi> (rad., in eV)
           1        1              -3107.1447053101              -3107.1431803413
           1        2               -296.7487920110               -296.7487800452
           1        3                -24.2822623597                -24.2822654477
           1        4                -21.1566888133                -21.1612738146
           1        5               -231.1817115314               -231.1817114800
           1        6               -228.9499722686               -228.9499722218
           1        7                -10.3848250184                -10.3851251887
           1        8                -10.2091716919                -10.2094969499
           1        9                  4.6161699956                  4.5441940344 ***
           1       10                  4.6310925384                  4.5579912724 ***
 * Note: Onsite integrals marked "***" above are less accurate than
 * onsite_accuracy_threshold =    0.03000 eV. Usually, this is harmless.
 * When in doubt, tighten the "radial" and/or "radial_multiplier" flags to check.

  Preparing densities etc. for the partition functions (integrals / Hartree potential).

  Preparations completed.
  max(cpu_time)          :      0.170 s.
  Wall clock time (cpu1) :      0.171 s.
------------------------------------------------------------

------------------------------------------------------------
          Begin self-consistency loop: Initialization.

          Date     :  20191025, Time     :  162948.065
------------------------------------------------------------

  Initializing index lists of integration centers etc. from given atomic structure:
  Mapping all atomic coordinates to central unit cell.

  Initializing the k-points
  Using symmetry for reducing the k-points
  | k-points reduced from:        6 to        4
  | Number of k-points                             :         4
  | Consuming         83 KiB for k_phase.
  The eigenvectors in the calculations are COMPLEX.
  | K-points in task   0:         0
  | K-points in task   1:         1
  | K-points in task   2:         1
  | K-points in task   3:         1
  | K-points in task   4:         1
  | K-points in task   5:         0
  | K-points in task   6:         0
  | K-points in task   7:         0
  | K-points in task   8:         0
  | K-points in task   9:         0
  | K-points in task  10:         0
  | K-points in task  11:         0
  | K-points in task  12:         0
  | K-points in task  13:         0
  | K-points in task  14:         0
  | K-points in task  15:         0
  | K-points in task  16:         0
  | K-points in task  17:         0
  | K-points in task  18:         0
  | K-points in task  19:         0
  | Number of basis functions in the Hamiltonian integrals :       696
  | Number of basis functions in a single unit cell        :        44
  | Number of small component basis functions in the Hamiltonian integrals :       900
  | Number of small component basis functions in a single unit cell        :        60
  | Number of centers in hartree potential         :       438
  | Number of centers in hartree multipole         :       118
  | Number of centers in electron density summation:        88
  | Number of centers in basis integrals           :        91
  | Number of centers in integrals                 :        39
  | Number of centers in hamiltonian               :        88
  | Estimated reciprocal-space cutoff momentum G_max:         1.84432723 bohr^-1 .
  | Reciprocal lattice points for long-range Hartree potential:      88
  Partitioning the integration grid into batches with parallel hashing+maxmin method.
  | Number of batches:       56
  | Maximal batch size:     124
  | Minimal batch size:      33
  | Average batch size:      82.143
  | Standard deviation of batch sizes:      21.771

  Integration load balanced across    20 MPI tasks.
  Work distribution over tasks is as follows:
  Task     0 has        262 integration points.
  Task     1 has        270 integration points.
  Task     2 has        221 integration points.
  Task     3 has        221 integration points.
  Task     4 has        224 integration points.
  Task     5 has        237 integration points.
  Task     6 has        241 integration points.
  Task     7 has        208 integration points.
  Task     8 has        276 integration points.
  Task     9 has        211 integration points.
  Task    10 has        291 integration points.
  Task    11 has        215 integration points.
  Task    12 has        207 integration points.
  Task    13 has        209 integration points.
  Task    14 has        218 integration points.
  Task    15 has        211 integration points.
  Task    16 has        215 integration points.
  Task    17 has        232 integration points.
  Task    18 has        215 integration points.
  Task    19 has        216 integration points.
  Initializing partition tables, free-atom densities, potentials, etc. across the integration grid (initialize_grid_storage).
  | initialize_grid_storage: Actual outermost partition radius vs. multipole_radius_free
  | (-- VB: in principle, multipole_radius_free should be larger, hence this output)
  | Species        1: Confinement radius =              4.999999999999999 AA, multipole_radius_free =              4.729701821786778 AA.
  | Species        1: outer_partition_radius set to              4.999999999999999 AA .
  | The sparse table of interatomic distances needs         41.55 kbyte instead of        66.25 kbyte of memory.
  | Net number of integration points:     4600
  | of which are non-zero points    :     4492
  | Numerical average free-atom electrostatic potential    :     -3.45292588 eV
  Renormalizing the initial density to the exact electron count on the 3D integration grid.
  | Initial density: Formal number of electrons (from input files) :      36.0000000000
  | Integrated number of electrons on 3D grid     :      35.9983961586
  | Charge integration error                      :      -0.0016038414
  | Normalization factor for density and gradient :       1.0000445531
  Renormalizing the free-atom superposition density to the exact electron count on the 3D integration grid.
  | Formal number of electrons (from input files) :      36.0000000000
  | Integrated number of electrons on 3D grid     :      35.9983961586
  | Charge integration error                      :      -0.0016038414
  | Normalization factor for density and gradient :       1.0000445531
  Obtaining max. number of non-zero basis functions in each batch (get_n_compute_maxes).
  | Maximal number of non-zero basis functions:      309 in task     0
  | Maximal number of non-zero basis functions:      264 in task     1
  | Maximal number of non-zero basis functions:      231 in task     2
  | Maximal number of non-zero basis functions:      252 in task     3
  | Maximal number of non-zero basis functions:      183 in task     4
  | Maximal number of non-zero basis functions:      243 in task     5
  | Maximal number of non-zero basis functions:      204 in task     6
  | Maximal number of non-zero basis functions:      261 in task     7
  | Maximal number of non-zero basis functions:      255 in task     8
  | Maximal number of non-zero basis functions:      210 in task     9
  | Maximal number of non-zero basis functions:      201 in task    10
  | Maximal number of non-zero basis functions:      138 in task    11
  | Maximal number of non-zero basis functions:      255 in task    12
  | Maximal number of non-zero basis functions:      231 in task    13
  | Maximal number of non-zero basis functions:      224 in task    14
  | Maximal number of non-zero basis functions:      243 in task    15
  | Maximal number of non-zero basis functions:      264 in task    16
  | Maximal number of non-zero basis functions:      252 in task    17
  | Maximal number of non-zero basis functions:      138 in task    18
  | Maximal number of non-zero basis functions:      138 in task    19
  Allocating        0.000 MB for KS_eigenvector_complex
  Integrating Hamiltonian matrix: batch-based integration.
  Time summed over all CPUs for integration: real work        0.249 s, elapsed        0.343 s => Consider using load balancing!
  spinor V matrix
  n_useful_cells=   29
  spinor W matrix
  spinor Ss matrix
  spinor Ssc2 matrix
  Integrating overlap matrix.
  Time summed over all CPUs for integration: real work        0.041 s, elapsed        0.057 s
  spinor S matrix

  Updating Kohn-Sham eigenvalues and eigenvectors using ELSI and the (modified) LAPACK eigensolver.

  Obtaining occupation numbers and chemical potential using ELSI.
  | Chemical potential (Fermi level):    -8.81148051 eV
  Writing Kohn-Sham eigenvalues.
  K-point:       1 at    0.000000    0.000000    0.000000 (in units of recip. lattice)

  State    Occupation    Eigenvalue [Ha]    Eigenvalue [eV]
      1       1.00000        -114.657482        -3119.98882
      2       1.00000        -114.657482        -3119.98882
      3       1.00000        -114.657482        -3119.98882
      4       1.00000        -114.657482        -3119.98882
      5       1.00000         -10.912542         -296.94538
      6       1.00000         -10.912542         -296.94538
      7       1.00000         -10.912542         -296.94538
      8       1.00000         -10.912542         -296.94538
      9       1.00000          -8.501197         -231.32934
     10       1.00000          -8.501197         -231.32934
     11       1.00000          -8.501197         -231.32934
     12       1.00000          -8.501197         -231.32934
     13       1.00000          -8.419088         -229.09505
     14       1.00000          -8.419088         -229.09505
     15       1.00000          -8.419088         -229.09505
     16       1.00000          -8.419088         -229.09505
     17       1.00000          -8.419088         -229.09505
     18       1.00000          -8.419088         -229.09505
     19       1.00000          -8.419088         -229.09505
     20       1.00000          -8.419088         -229.09505
     21       1.00000          -0.894386          -24.33747
     22       1.00000          -0.894386          -24.33747
     23       1.00000          -0.890737          -24.23819
     24       1.00000          -0.890737          -24.23819
     25       1.00000          -0.386730          -10.52345
     26       1.00000          -0.386730          -10.52345
     27       1.00000          -0.380416          -10.35164
     28       1.00000          -0.380416          -10.35164
     29       1.00000          -0.380416          -10.35164
     30       1.00000          -0.380416          -10.35164
     31       1.00000          -0.375267          -10.21153
     32       1.00000          -0.375267          -10.21153
     33       1.00000          -0.368576          -10.02947
     34       1.00000          -0.368576          -10.02947
     35       1.00000          -0.368576          -10.02947
     36       1.00000          -0.368576          -10.02947
     37       0.00000           0.056717            1.54336
     38       0.00000           0.056717            1.54336
     39       0.00000           0.260810            7.09700
     40       0.00000           0.260810            7.09700
     41       0.00000           0.263252            7.16346
     42       0.00000           0.263252            7.16346
     43       0.00000           0.263252            7.16346
     44       0.00000           0.263252            7.16346
     45       0.00000           0.376972           10.25793
     46       0.00000           0.376972           10.25793
     47       0.00000           0.378419           10.29731
     48       0.00000           0.378419           10.29731
     49       0.00000           0.378419           10.29732
     50       0.00000           0.378419           10.29732
     51       0.00000           0.504310           13.72298
     52       0.00000           0.504310           13.72298

  Spin-down eigenvalues:
  K-point:       1 at    0.000000    0.000000    0.000000 (in units of recip. lattice)

  State    Occupation    Eigenvalue [Ha]    Eigenvalue [eV]
      1       0.00000        -114.657482        -3119.98882
      2       0.00000        -114.657482        -3119.98882
      3       0.00000        -114.657482        -3119.98882
      4       0.00000        -114.657482        -3119.98882
      5       0.00000         -10.912542         -296.94538
      6       0.00000         -10.912542         -296.94538
      7       0.00000         -10.912542         -296.94538
      8       0.00000         -10.912542         -296.94538
      9       0.00000          -8.501197         -231.32934
     10       0.00000          -8.501197         -231.32934
     11       0.00000          -8.501197         -231.32934
     12       0.00000          -8.501197         -231.32934
     13       0.00000          -8.419088         -229.09505
     14       0.00000          -8.419088         -229.09505
     15       0.00000          -8.419088         -229.09505
     16       0.00000          -8.419088         -229.09505
     17       0.00000          -8.419088         -229.09505
     18       0.00000          -8.419088         -229.09505
     19       0.00000          -8.419088         -229.09505
     20       0.00000          -8.419088         -229.09505
     21       0.00000          -0.894386          -24.33747
     22       0.00000          -0.894386          -24.33747
     23       0.00000          -0.890737          -24.23819
     24       0.00000          -0.890737          -24.23819
     25       0.00000          -0.386730          -10.52345
     26       0.00000          -0.386730          -10.52345
     27       0.00000          -0.380416          -10.35164
     28       0.00000          -0.380416          -10.35164
     29       0.00000          -0.380416          -10.35164
     30       0.00000          -0.380416          -10.35164
     31       0.00000          -0.375267          -10.21153
     32       0.00000          -0.375267          -10.21153
     33       0.00000          -0.368576          -10.02947
     34       0.00000          -0.368576          -10.02947
     35       0.00000          -0.368576          -10.02947
     36       0.00000          -0.368576          -10.02947
     37       0.00000           0.056717            1.54336
     38       0.00000           0.056717            1.54336
     39       0.00000           0.260810            7.09700
     40       0.00000           0.260810            7.09700
     41       0.00000           0.263252            7.16346
     42       0.00000           0.263252            7.16346
     43       0.00000           0.263252            7.16346
     44       0.00000           0.263252            7.16346
     45       0.00000           0.376972           10.25793
     46       0.00000           0.376972           10.25793
     47       0.00000           0.378419           10.29731
     48       0.00000           0.378419           10.29731
     49       0.00000           0.378419           10.29732
     50       0.00000           0.378419           10.29732
     51       0.00000           0.504310           13.72298
     52       0.00000           0.504310           13.72298

  Current spin moment of the entire structure :
  | N = N_up - N_down (sum over all k points):        36.00000
  | S (sum over all k points)                :        18.00000

  What follows are estimated values for band gap, HOMO, LUMO, etc.
  | They are estimated on a discrete k-point grid and not necessarily exact.
  | For converged numbers, create a DOS and/or band structure plot on a denser k-grid.

  Highest occupied state (VBM) at    -10.01891151 eV (relative to internal zero)
  | Occupation number:      1.00000000
  | K-point:       4 at    0.333333    0.500000    0.000000 (in units of recip. lattice)
  | Spin channel:        1

  Lowest unoccupied state (CBM) at -3119.98882410 eV (relative to internal zero)
  | Occupation number:      0.00000000
  | K-point:       1 at    0.000000    0.000000    0.000000 (in units of recip. lattice)
  | Spin channel:        2

  ESTIMATED overall HOMO-LUMO gap:  -3109.96991259 eV between HOMO at k-point 4 and LUMO at k-point 1
  | This appears to be an indirect band gap.
  | Smallest direct gap :  -3109.96991259 eV for k_point 4 at    0.000000    0.000000    0.000000 (in units of recip. lattice)
  | Direct gap HOMO spin channel :     1
  | Direct gap LUMO spin channel :     2
  However, the gap value is rather small. Since we use a finite k-point grid,
  this material is most likely metallic (in the sense that there are states
  at or near the Fermi level). A DOS and/or band structure plot is required
  for an unambiguous distinction.
  Calculating total energy contributions from superposition of free atom densities.

  Total energy components:
  | Sum of eigenvalues            :        -611.73653396 Ha      -16646.19803829 eV
  | XC energy correction          :         -61.65534090 Ha       -1677.72718767 eV
  | XC potential correction       :          79.74130843 Ha        2169.87140418 eV
  | Free-atom electrostatic energy:        -464.81299085 Ha      -12648.20501463 eV
  | Hartree energy correction     :           0.00000000 Ha           0.00000000 eV
  | Entropy correction            :           0.00000000 Ha           0.00000000 eV
  | ---------------------------
  | Total energy                  :       -1058.46355728 Ha      -28802.25883642 eV
  | Total energy, T -> 0          :       -1058.46355728 Ha      -28802.25883642 eV  <-- do not rely on this value for anything but (periodic) metals
  | Electronic free energy        :       -1058.46355728 Ha      -28802.25883642 eV

  Derived energy quantities:
  | Kinetic energy                :        1064.85666375 Ha       28976.22411471 eV
  | Electrostatic energy          :       -2061.66488013 Ha      -56100.75576346 eV
  | Energy correction for multipole
  | error in Hartree potential    :           0.00000000 Ha           0.00000000 eV
  | Sum of eigenvalues per atom                           :       -8323.09901915 eV
  | Total energy (T->0) per atom                          :      -14401.12941821 eV  <-- do not rely on this value for anything but (periodic) metals
  | Electronic free energy per atom                       :      -14401.12941821 eV
  Initialize hartree_potential_storage
  Max. number of atoms included in rho_multipole:            2

  End scf initialization - timings             :  max(cpu_time)    wall_clock(cpu1)
  | Time for scf. initialization               :        0.295 s           0.295 s
  | Boundary condition initialization          :        0.054 s           0.054 s
  | Integration                                :        0.225 s           0.224 s
  | Solution of K.-S. eqns.                    :        2.638 s    ************ s
  | Grid partitioning                          :        0.004 s           0.005 s
  | Preloading free-atom quantities on grid    :        0.001 s           0.001 s
  | Free-atom superposition energy             :        0.001 s           0.001 s
  | Total energy evaluation                    :        0.000 s           0.001 s

  Partial memory accounting:
  | Current value for overall tracked memory usage:
  |   Minimum:        7.905 MB (on task  0)
  |   Maximum:        7.987 MB (on task  1)
  |   Average:        7.921 MB
  | Peak value for overall tracked memory usage:
  |   Minimum:       20.111 MB (on task  5 after allocating work_ovlp)
  |   Maximum:       21.482 MB (on task  0 after allocating work_ovlp)
  |   Average:       20.235 MB
  | Largest tracked array allocation so far:
  |   Minimum:        7.392 MB (work_ham on task  0)
  |   Maximum:        7.392 MB (work_ham on task  0)
  |   Average:        7.392 MB
  Note:  These values currently only include a subset of arrays which are explicitly tracked.
  The "true" memory usage will be greater.
------------------------------------------------------------

------------------------------------------------------------
          Begin self-consistency iteration #    1

  Date     :  20191025, Time     :  162948.360
------------------------------------------------------------
  Evaluating new KS density using the density matrix
  Evaluating density matrix
  Evaluating density matrix
  Time summed over all CPUs for getting density from density matrix: real work        0.192 s, elapsed        0.274 s
  Integration grid: deviation in total charge (<rho> - N_e) =  -1.055829E-06
  | <rho_up-rho_dn> = N_up-N_dn =     36.0281; <|rho_up-rho_dn|> =     36.0281
  Pulay mixing of updated and previous charge densities.
  Renormalizing the density to the exact electron count on the 3D integration grid.
  | Formal number of electrons (from input files) :      36.0000000000
  | Integrated number of electrons on 3D grid     :      35.9998514397
  | Charge integration error                      :      -0.0001485603
  | Normalization factor for density and gradient :       1.0000041267

  Evaluating partitioned Hartree potential by multipole expansion.
  | Original multipole sum: apparent total charge =  -0.537102E-14
  | Sum of charges compensated after spline to logarithmic grids =  -0.355749E-07
  | Analytical far-field extrapolation by fixed multipoles:
  | Hartree multipole sum: apparent total charge =  -0.537102E-14
  Summing up the Hartree potential.
  Time summed over all CPUs for potential: real work        0.214 s, elapsed        0.258 s
  | RMS charge density error from multipole expansion :   0.505842E-05
  | Average real-space part of the electrostatic potential :      0.00056718 eV

  Integrating Hamiltonian matrix: batch-based integration.
  Time summed over all CPUs for integration: real work        0.080 s, elapsed        0.110 s => Consider using load balancing!
  spinor V matrix
  n_useful_cells=   29

  Updating Kohn-Sham eigenvalues and eigenvectors using ELSI and the (modified) LAPACK eigensolver.

  Obtaining occupation numbers and chemical potential using ELSI.
  | Chemical potential (Fermi level):    -8.81069293 eV
  Writing Kohn-Sham eigenvalues.
  K-point:       1 at    0.000000    0.000000    0.000000 (in units of recip. lattice)

  State    Occupation    Eigenvalue [Ha]    Eigenvalue [eV]
      1       1.00000        -114.657264        -3119.98288
      2       1.00000        -114.657264        -3119.98288
      3       1.00000        -114.657264        -3119.98288
      4       1.00000        -114.657264        -3119.98288
      5       1.00000         -10.912395         -296.94138
      6       1.00000         -10.912395         -296.94138
      7       1.00000         -10.912395         -296.94138
      8       1.00000         -10.912395         -296.94138
      9       1.00000          -8.501044         -231.32517
     10       1.00000          -8.501044         -231.32517
     11       1.00000          -8.501044         -231.32517
     12       1.00000          -8.501044         -231.32517
     13       1.00000          -8.418940         -229.09100
     14       1.00000          -8.418940         -229.09100
     15       1.00000          -8.418940         -229.09100
     16       1.00000          -8.418940         -229.09100
     17       1.00000          -8.418931         -229.09076
     18       1.00000          -8.418931         -229.09076
     19       1.00000          -8.418931         -229.09076
     20       1.00000          -8.418931         -229.09076
     21       1.00000          -0.894320          -24.33568
     22       1.00000          -0.894320          -24.33568
     23       1.00000          -0.890671          -24.23638
     24       1.00000          -0.890671          -24.23638
     25       1.00000          -0.386674          -10.52194
     26       1.00000          -0.386674          -10.52194
     27       1.00000          -0.380365          -10.35027
     28       1.00000          -0.380365          -10.35027
     29       1.00000          -0.380356          -10.35002
     30       1.00000          -0.380356          -10.35002
     31       1.00000          -0.375209          -10.20995
     32       1.00000          -0.375209          -10.20995
     33       1.00000          -0.368524          -10.02804
     34       1.00000          -0.368524          -10.02804
     35       1.00000          -0.368514          -10.02777
     36       1.00000          -0.368514          -10.02777
     37       0.00000           0.056735            1.54385
     38       0.00000           0.056735            1.54385
     39       0.00000           0.260831            7.09756
     40       0.00000           0.260831            7.09756
     41       0.00000           0.263271            7.16397
     42       0.00000           0.263271            7.16397
     43       0.00000           0.263276            7.16410
     44       0.00000           0.263276            7.16410
     45       0.00000           0.376992           10.25847
     46       0.00000           0.376992           10.25847
     47       0.00000           0.378436           10.29776
     48       0.00000           0.378436           10.29776
     49       0.00000           0.378443           10.29796
     50       0.00000           0.378443           10.29796
     51       0.00000           0.504340           13.72378
     52       0.00000           0.504340           13.72378

  Spin-down eigenvalues:
  K-point:       1 at    0.000000    0.000000    0.000000 (in units of recip. lattice)

  State    Occupation    Eigenvalue [Ha]    Eigenvalue [eV]
      1       0.00000        -114.657264        -3119.98288
      2       0.00000        -114.657264        -3119.98288
      3       0.00000        -114.657264        -3119.98288
      4       0.00000        -114.657264        -3119.98288
      5       0.00000         -10.912395         -296.94138
      6       0.00000         -10.912395         -296.94138
      7       0.00000         -10.912395         -296.94138
      8       0.00000         -10.912395         -296.94138
      9       0.00000          -8.501044         -231.32517
     10       0.00000          -8.501044         -231.32517
     11       0.00000          -8.501044         -231.32517
     12       0.00000          -8.501044         -231.32517
     13       0.00000          -8.418940         -229.09100
     14       0.00000          -8.418940         -229.09100
     15       0.00000          -8.418940         -229.09100
     16       0.00000          -8.418940         -229.09100
     17       0.00000          -8.418931         -229.09076
     18       0.00000          -8.418931         -229.09076
     19       0.00000          -8.418931         -229.09076
     20       0.00000          -8.418931         -229.09076
     21       0.00000          -0.894320          -24.33568
     22       0.00000          -0.894320          -24.33568
     23       0.00000          -0.890671          -24.23638
     24       0.00000          -0.890671          -24.23638
     25       0.00000          -0.386674          -10.52194
     26       0.00000          -0.386674          -10.52194
     27       0.00000          -0.380365          -10.35027
     28       0.00000          -0.380365          -10.35027
     29       0.00000          -0.380356          -10.35002
     30       0.00000          -0.380356          -10.35002
     31       0.00000          -0.375209          -10.20995
     32       0.00000          -0.375209          -10.20995
     33       0.00000          -0.368524          -10.02804
     34       0.00000          -0.368524          -10.02804
     35       0.00000          -0.368514          -10.02777
     36       0.00000          -0.368514          -10.02777
     37       0.00000           0.056735            1.54385
     38       0.00000           0.056735            1.54385
     39       0.00000           0.260831            7.09756
     40       0.00000           0.260831            7.09756
     41       0.00000           0.263271            7.16397
     42       0.00000           0.263271            7.16397
     43       0.00000           0.263276            7.16410
     44       0.00000           0.263276            7.16410
     45       0.00000           0.376992           10.25847
     46       0.00000           0.376992           10.25847
     47       0.00000           0.378436           10.29776
     48       0.00000           0.378436           10.29776
     49       0.00000           0.378443           10.29796
     50       0.00000           0.378443           10.29796
     51       0.00000           0.504340           13.72378
     52       0.00000           0.504340           13.72378

  Current spin moment of the entire structure :
  | N = N_up - N_down (sum over all k points):        36.00000
  | S (sum over all k points)                :        18.00000

  What follows are estimated values for band gap, HOMO, LUMO, etc.
  | They are estimated on a discrete k-point grid and not necessarily exact.
  | For converged numbers, create a DOS and/or band structure plot on a denser k-grid.

  Highest occupied state (VBM) at    -10.01728746 eV (relative to internal zero)
  | Occupation number:      1.00000000
  | K-point:       4 at    0.333333    0.500000    0.000000 (in units of recip. lattice)
  | Spin channel:        1

  Lowest unoccupied state (CBM) at -3119.98288321 eV (relative to internal zero)
  | Occupation number:      0.00000000
  | K-point:       3 at    0.333333    0.000000    0.000000 (in units of recip. lattice)
  | Spin channel:        2

  ESTIMATED overall HOMO-LUMO gap:  -3109.96559575 eV between HOMO at k-point 4 and LUMO at k-point 3
  | This appears to be an indirect band gap.
  | Smallest direct gap :  -3109.96559575 eV for k_point 4 at    0.333333    0.000000    0.000000 (in units of recip. lattice)
  | Direct gap HOMO spin channel :     1
  | Direct gap LUMO spin channel :     2
  However, the gap value is rather small. Since we use a finite k-point grid,
  this material is most likely metallic (in the sense that there are states
  at or near the Fermi level). A DOS and/or band structure plot is required
  for an unambiguous distinction.

  Total energy components:
  | Sum of eigenvalues            :        -611.73229386 Ha      -16646.08265930 eV
  | XC energy correction          :         -61.65573039 Ha       -1677.73778617 eV
  | XC potential correction       :          79.74181899 Ha        2169.88529717 eV
  | Free-atom electrostatic energy:        -464.81299085 Ha      -12648.20501463 eV
  | Hartree energy correction     :          -0.00436590 Ha          -0.11880216 eV
  | Entropy correction            :           0.00000000 Ha           0.00000000 eV
  | ---------------------------
  | Total energy                  :       -1058.46356201 Ha      -28802.25896509 eV
  | Total energy, T -> 0          :       -1058.46356201 Ha      -28802.25896509 eV  <-- do not rely on this value for anything but (periodic) metals
  | Electronic free energy        :       -1058.46356201 Ha      -28802.25896509 eV

  Derived energy quantities:
  | Kinetic energy                :        1064.86182394 Ha       28976.36453058 eV
  | Electrostatic energy          :       -2061.66965556 Ha      -56100.88570949 eV
  | Energy correction for multipole
  | error in Hartree potential    :           0.00000075 Ha           0.00002042 eV
  | Sum of eigenvalues per atom                           :       -8323.04132965 eV
  | Total energy (T->0) per atom                          :      -14401.12948254 eV  <-- do not rely on this value for anything but (periodic) metals
  | Electronic free energy per atom                       :      -14401.12948254 eV

  Self-consistency convergence accuracy:
  | Change of charge/spin density :  0.3417E-02  0.0000E+00
  | Change of sum of eigenvalues  :  0.1154E+00 eV
  | Change of total energy        : -0.1287E-03 eV

  End self-consistency iteration #     1       :  max(cpu_time)    wall_clock(cpu1)
  | Time for this iteration                    :        0.203 s           0.203 s
  | Charge density update                      :        0.128 s           0.128 s
  | Density mixing & preconditioning           :        0.013 s           0.013 s
  | Hartree multipole update                   :        0.001 s           0.001 s
  | Hartree multipole summation                :        0.015 s           0.015 s
  | Integration                                :        0.042 s           0.042 s
  | Solution of K.-S. eqns.                    :        0.002 s           0.002 s
  | Total energy evaluation                    :        0.000 s           0.000 s

  Partial memory accounting:
  | Current value for overall tracked memory usage:
  |   Minimum:        7.905 MB (on task  0)
  |   Maximum:        7.987 MB (on task  1)
  |   Average:        7.921 MB
  | Peak value for overall tracked memory usage:
  |   Minimum:       20.111 MB (on task  5 after allocating work_ovlp)
  |   Maximum:       21.482 MB (on task  0 after allocating work_ovlp)
  |   Average:       20.235 MB
  | Largest tracked array allocation so far:
  |   Minimum:        7.392 MB (work_ham on task  0)
  |   Maximum:        7.392 MB (work_ham on task  0)
  |   Average:        7.392 MB
  Note:  These values currently only include a subset of arrays which are explicitly tracked.
  The "true" memory usage will be greater.
------------------------------------------------------------

------------------------------------------------------------
          Begin self-consistency iteration #    2

  Date     :  20191025, Time     :  162948.563
------------------------------------------------------------
  Evaluating new KS density using the density matrix
  Evaluating density matrix
  Evaluating density matrix
  Time summed over all CPUs for getting density from density matrix: real work        0.189 s, elapsed        0.271 s
  Integration grid: deviation in total charge (<rho> - N_e) =  -9.924407E-07
  | <rho_up-rho_dn> = N_up-N_dn =     36.0281; <|rho_up-rho_dn|> =     36.0281
  Pulay mixing of updated and previous charge densities.
  Renormalizing the density to the exact electron count on the 3D integration grid.
  | Formal number of electrons (from input files) :      36.0000000000
  | Integrated number of electrons on 3D grid     :      35.9994020687
  | Charge integration error                      :      -0.0005979313
  | Normalization factor for density and gradient :       1.0000166095

  Evaluating partitioned Hartree potential by multipole expansion.
  | Original multipole sum: apparent total charge =  -0.123993E-13
  | Sum of charges compensated after spline to logarithmic grids =  -0.161400E-06
  | Analytical far-field extrapolation by fixed multipoles:
  | Hartree multipole sum: apparent total charge =  -0.123991E-13
  Summing up the Hartree potential.
  Time summed over all CPUs for potential: real work        0.228 s, elapsed        0.282 s
  | RMS charge density error from multipole expansion :   0.266414E-04
  | Average real-space part of the electrostatic potential :      0.00293267 eV

  Integrating Hamiltonian matrix: batch-based integration.
  Time summed over all CPUs for integration: real work        0.087 s, elapsed        0.113 s => Consider using load balancing!
  spinor V matrix
  n_useful_cells=   29

  Updating Kohn-Sham eigenvalues and eigenvectors using ELSI and the (modified) LAPACK eigensolver.

  Obtaining occupation numbers and chemical potential using ELSI.
  | Chemical potential (Fermi level):    -8.80753907 eV
  Current spin moment of the entire structure :
  | N = N_up - N_down (sum over all k points):        36.00000
  | S (sum over all k points)                :        18.00000

  What follows are estimated values for band gap, HOMO, LUMO, etc.
  | They are estimated on a discrete k-point grid and not necessarily exact.
  | For converged numbers, create a DOS and/or band structure plot on a denser k-grid.

  Highest occupied state (VBM) at    -10.01071148 eV (relative to internal zero)
  | Occupation number:      1.00000000
  | K-point:       4 at    0.333333    0.500000    0.000000 (in units of recip. lattice)
  | Spin channel:        1

  Lowest unoccupied state (CBM) at -3119.96028117 eV (relative to internal zero)
  | Occupation number:      0.00000000
  | K-point:       3 at    0.333333    0.000000    0.000000 (in units of recip. lattice)
  | Spin channel:        2

  ESTIMATED overall HOMO-LUMO gap:  -3109.94956970 eV between HOMO at k-point 4 and LUMO at k-point 3
  | This appears to be an indirect band gap.
  | Smallest direct gap :  -3109.94956970 eV for k_point 4 at    0.333333    0.000000    0.000000 (in units of recip. lattice)
  | Direct gap HOMO spin channel :     1
  | Direct gap LUMO spin channel :     2
  However, the gap value is rather small. Since we use a finite k-point grid,
  this material is most likely metallic (in the sense that there are states
  at or near the Fermi level). A DOS and/or band structure plot is required
  for an unambiguous distinction.

  Checking to see if s.c.f. parameters should be adjusted.
  Adjusted the Pulay mixing parameter (charge_mix_param) for an expected low-gap system. New value:   0.020000 .
  Adjusted the occupation broadening width for an expected low-gap system. New value:      0.05000000 eV.

  Total energy components:
  | Sum of eigenvalues            :        -611.71569665 Ha      -16645.63102616 eV
  | XC energy correction          :         -61.65723295 Ha       -1677.77867298 eV
  | XC potential correction       :          79.74379021 Ha        2169.93893680 eV
  | Free-atom electrostatic energy:        -464.81299085 Ha      -12648.20501463 eV
  | Hartree energy correction     :          -0.02145074 Ha          -0.58370438 eV
  | Entropy correction            :          -0.00000000 Ha          -0.00000000 eV
  | ---------------------------
  | Total energy                  :       -1058.46358098 Ha      -28802.25948135 eV
  | Total energy, T -> 0          :       -1058.46358098 Ha      -28802.25948135 eV  <-- do not rely on this value for anything but (periodic) metals
  | Electronic free energy        :       -1058.46358098 Ha      -28802.25948135 eV

  Derived energy quantities:
  | Kinetic energy                :        1064.88035166 Ha       28976.86869561 eV
  | Electrostatic energy          :       -2061.68669970 Ha      -56101.34950398 eV
  | Energy correction for multipole
  | error in Hartree potential    :           0.00000394 Ha           0.00010731 eV
  | Sum of eigenvalues per atom                           :       -8322.81551308 eV
  | Total energy (T->0) per atom                          :      -14401.12974068 eV  <-- do not rely on this value for anything but (periodic) metals
  | Electronic free energy per atom                       :      -14401.12974068 eV

  Self-consistency convergence accuracy:
  | Change of charge/spin density :  0.3352E-02  0.0000E+00
  | Change of sum of eigenvalues  :  0.4516E+00 eV
  | Change of total energy        : -0.5163E-03 eV

  End self-consistency iteration #     2       :  max(cpu_time)    wall_clock(cpu1)
  | Time for this iteration                    :        0.204 s           0.203 s
  | Charge density update                      :        0.126 s           0.125 s
  | Density mixing & preconditioning           :        0.013 s           0.013 s
  | Hartree multipole update                   :        0.001 s           0.001 s
  | Hartree multipole summation                :        0.017 s           0.017 s
  | Integration                                :        0.045 s           0.044 s
  | Solution of K.-S. eqns.                    :        0.001 s           0.001 s
  | Total energy evaluation                    :        0.001 s           0.001 s

  Partial memory accounting:
  | Current value for overall tracked memory usage:
  |   Minimum:        7.905 MB (on task  0)
  |   Maximum:        7.988 MB (on task  1)
  |   Average:        7.922 MB
  | Peak value for overall tracked memory usage:
  |   Minimum:       20.111 MB (on task  5 after allocating work_ovlp)
  |   Maximum:       21.482 MB (on task  0 after allocating work_ovlp)
  |   Average:       20.235 MB
  | Largest tracked array allocation so far:
  |   Minimum:        7.392 MB (work_ham on task  0)
  |   Maximum:        7.392 MB (work_ham on task  0)
  |   Average:        7.392 MB
  Note:  These values currently only include a subset of arrays which are explicitly tracked.
  The "true" memory usage will be greater.
------------------------------------------------------------

------------------------------------------------------------
          Begin self-consistency iteration #    3

  Date     :  20191025, Time     :  162948.768
------------------------------------------------------------
  Evaluating new KS density using the density matrix
  Evaluating density matrix
  Evaluating density matrix
  Time summed over all CPUs for getting density from density matrix: real work        0.210 s, elapsed        0.283 s
  Integration grid: deviation in total charge (<rho> - N_e) =  -7.402479E-07
  | <rho_up-rho_dn> = N_up-N_dn =     36.0281; <|rho_up-rho_dn|> =     36.0281
  Pulay mixing of updated and previous charge densities.
  Renormalizing the density to the exact electron count on the 3D integration grid.
  | Formal number of electrons (from input files) :      36.0000000000
  | Integrated number of electrons on 3D grid     :      35.9992846837
  | Charge integration error                      :      -0.0007153163
  | Normalization factor for density and gradient :       1.0000198703

  Evaluating partitioned Hartree potential by multipole expansion.
  | Original multipole sum: apparent total charge =  -0.161667E-14
  | Sum of charges compensated after spline to logarithmic grids =  -0.749573E-06
  | Analytical far-field extrapolation by fixed multipoles:
  | Hartree multipole sum: apparent total charge =  -0.161868E-14
  Summing up the Hartree potential.
  Time summed over all CPUs for potential: real work        0.265 s, elapsed        0.311 s
  | RMS charge density error from multipole expansion :   0.102658E-03
  | Average real-space part of the electrostatic potential :      0.00912503 eV

  Integrating Hamiltonian matrix: batch-based integration.
  Time summed over all CPUs for integration: real work        0.090 s, elapsed        0.127 s => Consider using load balancing!
  spinor V matrix
  n_useful_cells=   29

  Updating Kohn-Sham eigenvalues and eigenvectors using ELSI and the (modified) LAPACK eigensolver.

  Obtaining occupation numbers and chemical potential using ELSI.
  | Chemical potential (Fermi level):    -8.80444109 eV
  Current spin moment of the entire structure :
  | N = N_up - N_down (sum over all k points):        36.00000
  | S (sum over all k points)                :        18.00000

  What follows are estimated values for band gap, HOMO, LUMO, etc.
  | They are estimated on a discrete k-point grid and not necessarily exact.
  | For converged numbers, create a DOS and/or band structure plot on a denser k-grid.

  Highest occupied state (VBM) at    -10.00147497 eV (relative to internal zero)
  | Occupation number:      1.00000000
  | K-point:       4 at    0.333333    0.500000    0.000000 (in units of recip. lattice)
  | Spin channel:        1

  Lowest unoccupied state (CBM) at -3119.98694315 eV (relative to internal zero)
  | Occupation number:      0.00000000
  | K-point:       3 at    0.333333    0.000000    0.000000 (in units of recip. lattice)
  | Spin channel:        2

  ESTIMATED overall HOMO-LUMO gap:  -3109.98546818 eV between HOMO at k-point 4 and LUMO at k-point 3
  | This appears to be an indirect band gap.
  | Smallest direct gap :  -3109.98546818 eV for k_point 4 at    0.333333    0.000000    0.000000 (in units of recip. lattice)
  | Direct gap HOMO spin channel :     1
  | Direct gap LUMO spin channel :     2
  However, the gap value is rather small. Since we use a finite k-point grid,
  this material is most likely metallic (in the sense that there are states
  at or near the Fermi level). A DOS and/or band structure plot is required
  for an unambiguous distinction.

  Total energy components:
  | Sum of eigenvalues            :        -611.71504720 Ha      -16645.61335387 eV
  | XC energy correction          :         -61.65635899 Ha       -1677.75489143 eV
  | XC potential correction       :          79.74271016 Ha        2169.90954719 eV
  | Free-atom electrostatic energy:        -464.81299085 Ha      -12648.20501463 eV
  | Hartree energy correction     :          -0.02187413 Ha          -0.59522544 eV
  | Entropy correction            :          -0.00000000 Ha          -0.00000000 eV
  | ---------------------------
  | Total energy                  :       -1058.46356102 Ha      -28802.25893818 eV
  | Total energy, T -> 0          :       -1058.46356102 Ha      -28802.25893818 eV  <-- do not rely on this value for anything but (periodic) metals
  | Electronic free energy        :       -1058.46356102 Ha      -28802.25893818 eV

  Derived energy quantities:
  | Kinetic energy                :        1064.81065679 Ha       28974.97220170 eV
  | Electrostatic energy          :       -2061.61785882 Ha      -56099.47624845 eV
  | Energy correction for multipole
  | error in Hartree potential    :           0.00001503 Ha           0.00040897 eV
  | Sum of eigenvalues per atom                           :       -8322.80667694 eV
  | Total energy (T->0) per atom                          :      -14401.12946909 eV  <-- do not rely on this value for anything but (periodic) metals
  | Electronic free energy per atom                       :      -14401.12946909 eV

  Self-consistency convergence accuracy:
  | Change of charge/spin density :  0.3177E-02  0.0000E+00
  | Change of sum of eigenvalues  :  0.1767E-01 eV
  | Change of total energy        :  0.5432E-03 eV

  End self-consistency iteration #     3       :  max(cpu_time)    wall_clock(cpu1)
  | Time for this iteration                    :        0.211 s           0.210 s
  | Charge density update                      :        0.129 s           0.128 s
  | Density mixing & preconditioning           :        0.013 s           0.014 s
  | Hartree multipole update                   :        0.001 s           0.001 s
  | Hartree multipole summation                :        0.018 s           0.018 s
  | Integration                                :        0.045 s           0.045 s
  | Solution of K.-S. eqns.                    :        0.002 s           0.002 s
  | Total energy evaluation                    :        0.001 s           0.001 s

  Partial memory accounting:
  | Current value for overall tracked memory usage:
  |   Minimum:        7.906 MB (on task  0)
  |   Maximum:        7.988 MB (on task  1)
  |   Average:        7.922 MB
  | Peak value for overall tracked memory usage:
  |   Minimum:       20.111 MB (on task  5 after allocating work_ovlp)
  |   Maximum:       21.482 MB (on task  0 after allocating work_ovlp)
  |   Average:       20.235 MB
  | Largest tracked array allocation so far:
  |   Minimum:        7.392 MB (work_ham on task  0)
  |   Maximum:        7.392 MB (work_ham on task  0)
  |   Average:        7.392 MB
  Note:  These values currently only include a subset of arrays which are explicitly tracked.
  The "true" memory usage will be greater.
------------------------------------------------------------

------------------------------------------------------------
          Begin self-consistency iteration #    4

  Date     :  20191025, Time     :  162948.979
------------------------------------------------------------
  Evaluating new KS density using the density matrix
  Evaluating density matrix
  Evaluating density matrix
  Time summed over all CPUs for getting density from density matrix: real work        0.188 s, elapsed        0.271 s
  Integration grid: deviation in total charge (<rho> - N_e) =  -5.632121E-07
  | <rho_up-rho_dn> = N_up-N_dn =     36.0281; <|rho_up-rho_dn|> =     36.0281
  Pulay mixing of updated and previous charge densities.
  Renormalizing the density to the exact electron count on the 3D integration grid.
  | Formal number of electrons (from input files) :      36.0000000000
  | Integrated number of electrons on 3D grid     :      35.9999991326
  | Charge integration error                      :      -0.0000008674
  | Normalization factor for density and gradient :       1.0000000241

  Evaluating partitioned Hartree potential by multipole expansion.
  | Original multipole sum: apparent total charge =  -0.651541E-14
  | Sum of charges compensated after spline to logarithmic grids =  -0.748115E-06
  | Analytical far-field extrapolation by fixed multipoles:
  | Hartree multipole sum: apparent total charge =  -0.651058E-14
  Summing up the Hartree potential.
  Time summed over all CPUs for potential: real work        0.258 s, elapsed        0.310 s
  | RMS charge density error from multipole expansion :   0.102634E-03
  | Average real-space part of the electrostatic potential :      0.00912868 eV

  Integrating Hamiltonian matrix: batch-based integration.
  Time summed over all CPUs for integration: real work        0.079 s, elapsed        0.107 s => Consider using load balancing!
  spinor V matrix
  n_useful_cells=   29

  Updating Kohn-Sham eigenvalues and eigenvectors using ELSI and the (modified) LAPACK eigensolver.

  Obtaining occupation numbers and chemical potential using ELSI.
  | Chemical potential (Fermi level):    -8.80442870 eV
  Current spin moment of the entire structure :
  | N = N_up - N_down (sum over all k points):        36.00000
  | S (sum over all k points)                :        18.00000

  What follows are estimated values for band gap, HOMO, LUMO, etc.
  | They are estimated on a discrete k-point grid and not necessarily exact.
  | For converged numbers, create a DOS and/or band structure plot on a denser k-grid.

  Highest occupied state (VBM) at    -10.00145225 eV (relative to internal zero)
  | Occupation number:      1.00000000
  | K-point:       4 at    0.333333    0.500000    0.000000 (in units of recip. lattice)
  | Spin channel:        1

  Lowest unoccupied state (CBM) at -3119.98687585 eV (relative to internal zero)
  | Occupation number:      0.00000000
  | K-point:       3 at    0.333333    0.000000    0.000000 (in units of recip. lattice)
  | Spin channel:        2

  ESTIMATED overall HOMO-LUMO gap:  -3109.98542361 eV between HOMO at k-point 4 and LUMO at k-point 3
  | This appears to be an indirect band gap.
  | Smallest direct gap :  -3109.98542361 eV for k_point 4 at    0.333333    0.000000    0.000000 (in units of recip. lattice)
  | Direct gap HOMO spin channel :     1
  | Direct gap LUMO spin channel :     2
  However, the gap value is rather small. Since we use a finite k-point grid,
  this material is most likely metallic (in the sense that there are states
  at or near the Fermi level). A DOS and/or band structure plot is required
  for an unambiguous distinction.

  Total energy components:
  | Sum of eigenvalues            :        -611.71500221 Ha      -16645.61212943 eV
  | XC energy correction          :         -61.65636465 Ha       -1677.75504528 eV
  | XC potential correction       :          79.74271734 Ha        2169.90974248 eV
  | Free-atom electrostatic energy:        -464.81299085 Ha      -12648.20501463 eV
  | Hartree energy correction     :          -0.02192071 Ha          -0.59649291 eV
  | Entropy correction            :          -0.00000000 Ha          -0.00000000 eV
  | ---------------------------
  | Total energy                  :       -1058.46356108 Ha      -28802.25893976 eV
  | Total energy, T -> 0          :       -1058.46356108 Ha      -28802.25893976 eV  <-- do not rely on this value for anything but (periodic) metals
  | Electronic free energy        :       -1058.46356108 Ha      -28802.25893976 eV

  Derived energy quantities:
  | Kinetic energy                :        1064.81074514 Ha       28974.97460569 eV
  | Electrostatic energy          :       -2061.61794157 Ha      -56099.47850017 eV
  | Energy correction for multipole
  | error in Hartree potential    :           0.00001503 Ha           0.00040895 eV
  | Sum of eigenvalues per atom                           :       -8322.80606471 eV
  | Total energy (T->0) per atom                          :      -14401.12946988 eV  <-- do not rely on this value for anything but (periodic) metals
  | Electronic free energy per atom                       :      -14401.12946988 eV

  Self-consistency convergence accuracy:
  | Change of charge/spin density :  0.1334E-03  0.0000E+00
  | Change of sum of eigenvalues  :  0.1224E-02 eV
  | Change of total energy        : -0.1582E-05 eV

  End self-consistency iteration #     4       :  max(cpu_time)    wall_clock(cpu1)
  | Time for this iteration                    :        0.203 s           0.203 s
  | Charge density update                      :        0.128 s           0.127 s
  | Density mixing & preconditioning           :        0.013 s           0.013 s
  | Hartree multipole update                   :        0.001 s           0.001 s
  | Hartree multipole summation                :        0.018 s           0.018 s
  | Integration                                :        0.042 s           0.042 s
  | Solution of K.-S. eqns.                    :        0.001 s           0.001 s
  | Total energy evaluation                    :        0.000 s           0.000 s

  Partial memory accounting:
  | Current value for overall tracked memory usage:
[...]
  | XC energy correction          :         -61.65637779 Ha       -1677.75540299 eV
  | XC potential correction       :          79.74272489 Ha        2169.90994801 eV
  | Free-atom electrostatic energy:        -464.81299085 Ha      -12648.20501463 eV
  | Hartree energy correction     :          -0.02155556 Ha          -0.58655660 eV
  | Entropy correction            :          -0.00000000 Ha          -0.00000000 eV
  | ---------------------------
  | Total energy                  :       -1058.46355989 Ha      -28802.25890753 eV
  | Total energy, T -> 0          :       -1058.46355989 Ha      -28802.25890753 eV  <-- do not rely on this value for anything but (periodic) metals
  | Electronic free energy        :       -1058.46355989 Ha      -28802.25890753 eV

  Derived energy quantities:
  | Kinetic energy                :        1064.80939461 Ha       28974.93785591 eV
  | Electrostatic energy          :       -2061.61657671 Ha      -56099.44136046 eV
  | Energy correction for multipole
  | error in Hartree potential    :           0.00001509 Ha           0.00041057 eV
  | Sum of eigenvalues per atom                           :       -8322.81094066 eV
  | Total energy (T->0) per atom                          :      -14401.12945376 eV  <-- do not rely on this value for anything but (periodic) metals
  | Electronic free energy per atom                       :      -14401.12945376 eV

  Self-consistency convergence accuracy:
  | Change of charge/spin density :  0.5935E-06  0.0000E+00
  | Change of sum of eigenvalues  :  0.1191E-03 eV
  | Change of total energy        : -0.1222E-06 eV

  Preliminary charge convergence reached. Turning off preconditioner.

  Writing Kohn-Sham eigenvalues.
  K-point:       1 at    0.000000    0.000000    0.000000 (in units of recip. lattice)

  State    Occupation    Eigenvalue [Ha]    Eigenvalue [eV]
      1       1.00000        -114.657459        -3119.98819
      2       1.00000        -114.657459        -3119.98819
      3       1.00000        -114.657458        -3119.98818
      4       1.00000        -114.657458        -3119.98818
      5       1.00000         -10.911816         -296.92561
      6       1.00000         -10.911816         -296.92561
      7       1.00000         -10.911816         -296.92561
      8       1.00000         -10.911816         -296.92561
      9       1.00000          -8.500512         -231.31070
     10       1.00000          -8.500512         -231.31070
     11       1.00000          -8.500512         -231.31070
     12       1.00000          -8.500512         -231.31070
     13       1.00000          -8.418488         -229.07871
     14       1.00000          -8.418488         -229.07871
     15       1.00000          -8.418488         -229.07870
     16       1.00000          -8.418488         -229.07870
     17       1.00000          -8.418313         -229.07396
     18       1.00000          -8.418313         -229.07396
     19       1.00000          -8.418313         -229.07396
     20       1.00000          -8.418313         -229.07396
     21       1.00000          -0.893701          -24.31885
     22       1.00000          -0.893701          -24.31885
     23       1.00000          -0.890046          -24.21938
     24       1.00000          -0.890046          -24.21938
     25       1.00000          -0.386140          -10.50741
     26       1.00000          -0.386140          -10.50741
     27       1.00000          -0.379920          -10.33814
     28       1.00000          -0.379920          -10.33814
     29       1.00000          -0.379732          -10.33305
     30       1.00000          -0.379732          -10.33305
     31       1.00000          -0.374654          -10.19487
     32       1.00000          -0.374654          -10.19487
     33       1.00000          -0.368061          -10.01544
     34       1.00000          -0.368061          -10.01544
     35       1.00000          -0.367865          -10.01011
     36       1.00000          -0.367865          -10.01011
     37       0.00000           0.056924            1.54898
     38       0.00000           0.056924            1.54898
     39       0.00000           0.261035            7.10311
     40       0.00000           0.261035            7.10311
     41       0.00000           0.263432            7.16836
     42       0.00000           0.263432            7.16836
     43       0.00000           0.263530            7.17103
     44       0.00000           0.263530            7.17103
     45       0.00000           0.377208           10.26435
     46       0.00000           0.377208           10.26435
     47       0.00000           0.378589           10.30194
     48       0.00000           0.378589           10.30194
     49       0.00000           0.378744           10.30614
     50       0.00000           0.378744           10.30614
     51       0.00000           0.504621           13.73145
     52       0.00000           0.504621           13.73145

  Spin-down eigenvalues:
  K-point:       1 at    0.000000    0.000000    0.000000 (in units of recip. lattice)

  State    Occupation    Eigenvalue [Ha]    Eigenvalue [eV]
      1       0.00000        -114.657459        -3119.98819
      2       0.00000        -114.657459        -3119.98819
      3       0.00000        -114.657458        -3119.98818
      4       0.00000        -114.657458        -3119.98818
      5       0.00000         -10.911816         -296.92561
      6       0.00000         -10.911816         -296.92561
      7       0.00000         -10.911816         -296.92561
      8       0.00000         -10.911816         -296.92561
      9       0.00000          -8.500512         -231.31070
     10       0.00000          -8.500512         -231.31070
     11       0.00000          -8.500512         -231.31070
     12       0.00000          -8.500512         -231.31070
     13       0.00000          -8.418488         -229.07871
     14       0.00000          -8.418488         -229.07871
     15       0.00000          -8.418488         -229.07870
     16       0.00000          -8.418488         -229.07870
     17       0.00000          -8.418313         -229.07396
     18       0.00000          -8.418313         -229.07396
     19       0.00000          -8.418313         -229.07396
     20       0.00000          -8.418313         -229.07396
     21       0.00000          -0.893701          -24.31885
     22       0.00000          -0.893701          -24.31885
     23       0.00000          -0.890046          -24.21938
     24       0.00000          -0.890046          -24.21938
     25       0.00000          -0.386140          -10.50741
     26       0.00000          -0.386140          -10.50741
     27       0.00000          -0.379920          -10.33814
     28       0.00000          -0.379920          -10.33814
     29       0.00000          -0.379732          -10.33305
     30       0.00000          -0.379732          -10.33305
     31       0.00000          -0.374654          -10.19487
     32       0.00000          -0.374654          -10.19487
     33       0.00000          -0.368061          -10.01544
     34       0.00000          -0.368061          -10.01544
     35       0.00000          -0.367865          -10.01011
     36       0.00000          -0.367865          -10.01011
     37       0.00000           0.056924            1.54898
     38       0.00000           0.056924            1.54898
     39       0.00000           0.261035            7.10311
     40       0.00000           0.261035            7.10311
     41       0.00000           0.263432            7.16836
     42       0.00000           0.263432            7.16836
     43       0.00000           0.263530            7.17103
     44       0.00000           0.263530            7.17103
     45       0.00000           0.377208           10.26435
     46       0.00000           0.377208           10.26435
     47       0.00000           0.378589           10.30194
     48       0.00000           0.378589           10.30194
     49       0.00000           0.378744           10.30614
     50       0.00000           0.378744           10.30614
     51       0.00000           0.504621           13.73145
     52       0.00000           0.504621           13.73145

  Current spin moment of the entire structure :
  | N = N_up - N_down (sum over all k points):        36.00000
  | S (sum over all k points)                :        18.00000

  What follows are estimated values for band gap, HOMO, LUMO, etc.
  | They are estimated on a discrete k-point grid and not necessarily exact.
  | For converged numbers, create a DOS and/or band structure plot on a denser k-grid.

  Highest occupied state (VBM) at    -10.00095300 eV (relative to internal zero)
  | Occupation number:      1.00000000
  | K-point:       4 at    0.333333    0.500000    0.000000 (in units of recip. lattice)
  | Spin channel:        1

  Lowest unoccupied state (CBM) at -3119.98818960 eV (relative to internal zero)
  | Occupation number:      0.00000000
  | K-point:       3 at    0.333333    0.000000    0.000000 (in units of recip. lattice)
  | Spin channel:        2

  ESTIMATED overall HOMO-LUMO gap:  -3109.98723660 eV between HOMO at k-point 4 and LUMO at k-point 3
  | This appears to be an indirect band gap.
  | Smallest direct gap :  -3109.98723660 eV for k_point 4 at    0.333333    0.000000    0.000000 (in units of recip. lattice)
  | Direct gap HOMO spin channel :     1
  | Direct gap LUMO spin channel :     2
  However, the gap value is rather small. Since we use a finite k-point grid,
  this material is most likely metallic (in the sense that there are states
  at or near the Fermi level). A DOS and/or band structure plot is required
  for an unambiguous distinction.

  Self-consistency cycle converged.

  End self-consistency iteration #     8       :  max(cpu_time)    wall_clock(cpu1)
  | Time for this iteration                    :        0.204 s           0.204 s
  | Charge density update                      :        0.127 s           0.126 s
  | Density mixing                             :        0.013 s           0.013 s
  | Hartree multipole update                   :        0.001 s           0.001 s
  | Hartree multipole summation                :        0.018 s           0.018 s
  | Integration                                :        0.042 s           0.042 s
  | Solution of K.-S. eqns.                    :        0.001 s           0.001 s
  | Total energy evaluation                    :        0.000 s           0.000 s

  Partial memory accounting:
  | Current value for overall tracked memory usage:
  |   Minimum:        7.906 MB (on task  0)
  |   Maximum:        7.988 MB (on task  1)
  |   Average:        7.922 MB
  | Peak value for overall tracked memory usage:
  |   Minimum:       20.111 MB (on task  5 after allocating work_ovlp)
  |   Maximum:       21.482 MB (on task  0 after allocating work_ovlp)
  |   Average:       20.235 MB
  | Largest tracked array allocation so far:
  |   Minimum:        7.392 MB (work_ham on task  0)
  |   Maximum:        7.392 MB (work_ham on task  0)
  |   Average:        7.392 MB
  Note:  These values currently only include a subset of arrays which are explicitly tracked.
  The "true" memory usage will be greater.
------------------------------------------------------------

  Energy and forces in a compact form:
  | Total energy uncorrected      :         -0.288022589075275E+05 eV
  | Total energy corrected        :         -0.288022589075275E+05 eV  <-- do not rely on this value for anything but (periodic) metals
  | Electronic free energy        :         -0.288022589075275E+05 eV

  ------------------------------------ 
  Start decomposition of the XC Energy 
  ------------------------------------ 
  X and C from original XC functional choice 
  Hartree-Fock Energy :          0.000000000 Ha              0.000000000 eV
  X Energy            :        -60.247276829 Ha          -1639.411814872 eV
  C Energy            :         -1.409100963 Ha            -38.343588113 eV
  Total XC Energy     :        -61.656377792 Ha          -1677.755402985 eV
  ------------------------------------ 
  LDA X and C from self-consistent density 
  X Energy LDA        :        -70.502960824 Ha          -1918.483175365 eV
  C Energy LDA        :         -2.851260182 Ha            -77.586737123 eV
  ------------------------------------ 
  End decomposition of the XC Energy 
  ------------------------------------ 

------------------------------------------------------------
  |------------------------------------------------------
  | Final ELSI Output
  |------------------------------------------------------
  |
  | Physical Properties
  |   Number of electrons       :        0.36000000E+02
  |   Number of states          :                    52
  |
  | Matrix Properties
  |   Matrix format             :           BLACS_DENSE
  |   Number of basis functions :                    52
  |
  | Computational Details
  |   Parallel mode             :           SINGLE_PROC
  |   Solver requested          :                LAPACK
  |   Number of ELSI calls      :                     0
  |
  |------------------------------------------------------
  | ELSI Project (c)  elsi-interchange.org
  |------------------------------------------------------

------------------------------------------------------------------------------
  Final output of selected total energy values:

  The following output summarizes some interesting total energy values
  at the end of a run (AFTER all relaxation, molecular dynamics, etc.).

  | Total energy of the DFT / Hartree-Fock s.c.f. calculation      :         -28802.258907527 eV
  | Final zero-broadening corrected energy (caution - metals only) :         -28802.258907527 eV
  | For reference only, the value of 1 Hartree used in FHI-aims is :             27.211384500 eV
  | For reference only, the overall average (free atom contribution
  | + realspace contribution) of the electrostatic potential after
  | s.c.f. convergence is                                          :             -3.443678547 eV

  Before relying on these values, please be sure to understand exactly which
  total energy value is referred to by a given number. Different objects may
  all carry the same name 'total energy'. Definitions:

  Total energy of the DFT / Hartree-Fock s.c.f. calculation:
  | Note that this energy does not include ANY quantities calculated after the
  | s.c.f. cycle, in particular not ANY RPA, MP2, etc. many-body perturbation terms.

  Final zero-broadening corrected energy:
  | For metallic systems only, a broadening of the occupation numbers at the Fermi
  | level can be extrapolated back to zero broadening by an electron-gas inspired
  | formula. For all systems that are not real metals, this value can be
  | meaningless and should be avoided.

------------------------------------------------------------------------------
  Methods described in the following list of references were used in this FHI-aims run.
  If you publish the results, please make sure to cite these reference if they apply.
  FHI-aims is an academic code, and for our developers (often, Ph.D. students
  and postdocs), scientific credit in the community is essential.
  Thank you for helping us!

  For any use of FHI-aims, please cite:

    Volker Blum, Ralf Gehrke, Felix Hanke, Paula Havu, Ville Havu,
    Xinguo Ren, Karsten Reuter, and Matthias Scheffler
    'Ab initio molecular simulations with numeric atom-centered orbitals'
    Computer Physics Communications 180, 2175-2196 (2009)
    http://dx.doi.org/10.1016/j.cpc.2009.06.022


  The provided symmetry information was generated with SPGlib:

    Atsushi Togo, Yusuke Seto, Dimitar Pashov
    SPGlib 1.7.3 obtained from http://spglib.sourceforge.net
    Copyright (C) 2008 Atsushi Togo


  The ELSI infrastructure was used in your run to solve the Kohn-Sham electronic structure.
  Please check out http://elsi-interchange.org to learn more.
  If scalability is important for your project, please acknowledge ELSI by citing:

    V. W-z. Yu, F. Corsetti, A. Garcia, W. P. Huhn, M. Jacquelin, W. Jia,
    B. Lange, L. Lin, J. Lu, W. Mi, A. Seifitokaldani, A. Vazquez-Mayagoitia,
    C. Yang, H. Yang, and V. Blum
    'ELSI: A unified software interface for Kohn-Sham electronic structure solvers'
    Computer Physics Communications 222, 267-285 (2018).
    http://dx.doi.org/10.1016/j.cpc.2017.09.007


  For the real-space grid partitioning and parallelization used in this calculation, please cite:

    Ville Havu, Volker Blum, Paula Havu, and Matthias Scheffler,
    'Efficient O(N) integration for all-electron electronic structure calculation'
    'using numerically tabulated basis functions'
    Journal of Computational Physics 228, 8367-8379 (2009).
    http://dx.doi.org/10.1016/j.jcp.2009.08.008

  Of course, there are many other important community references, e.g., those cited in the
  above references. Our list is limited to references that describe implementations in the
  FHI-aims code. The reason is purely practical (length of this list) - please credit others as well.

 * A warning was issued further up regarding the CPU load.
   Some CPUs do not participate in the eigenvalue solution.
   In corner cases, this may be the correct behavior. Otherwise,
   consider using a scalapack/elpa version of the code for a parallel treatment.

------------------------------------------------------------
          Leaving FHI-aims.
          Date     :  20191025, Time     :  162950.030

          Computational steps:
          | Number of self-consistency cycles          :            8
          | Number of SCF (re)initializations          :            1

          Detailed time accounting                     :  max(cpu_time)    wall_clock(cpu1)
          | Total time                                 :        4.206 s           4.218 s
          | Preparation time                           :        0.170 s           0.171 s
          | Boundary condition initalization           :        0.054 s           0.054 s
          | Grid partitioning                          :        0.004 s           0.005 s
          | Preloading free-atom quantities on grid    :        0.001 s           0.001 s
          | Free-atom superposition energy             :        0.001 s           0.001 s
          | Total time for integrations                :        0.571 s           0.569 s
          | Total time for solution of K.-S. equations :        2.650 s    ************ s
          | Total time for density update              :        1.014 s           1.010 s
          | Total time for mixing & preconditioning    :        0.128 s           0.130 s
          | Total time for Hartree multipole update    :        0.008 s           0.009 s
          | Total time for Hartree multipole sum       :        0.141 s           0.141 s
          | Total time for total energy evaluation     :        0.004 s           0.004 s
          | Total time for scaled ZORA corrections     :        0.000 s           0.000 s

          Partial memory accounting:
          | Residual value for overall tracked memory usage across tasks:     0.000000 MB (should be 0.000000 MB)
          | Peak values for overall tracked memory usage:
          |   Minimum:       20.111 MB (on task  5 after allocating work_ovlp)
          |   Maximum:       21.482 MB (on task  0 after allocating work_ovlp)
          |   Average:       20.235 MB
          | Largest tracked array allocation:
          |   Minimum:        7.392 MB (work_ham on task  0)
          |   Maximum:        7.392 MB (work_ham on task  0)
          |   Average:        7.392 MB
          Note:  These values currently only include a subset of arrays which are explicitly tracked.
          The "true" memory usage will be greater.

          Have a nice day.
------------------------------------------------------------
